Module for gcc 10.2:
(GNU C/C++/FORTRAN compilers v10.2.0) - loaded.
Module for OpenMPI 4.1.0-gcc10.2-infiniband loaded.

     Program PWSCF v.7.0 starts on 11Feb2022 at 22:56:43 

     This program is part of the open-source Quantum ESPRESSO suite
     for quantum simulation of materials; please cite
         "P. Giannozzi et al., J. Phys.:Condens. Matter 21 395502 (2009);
         "P. Giannozzi et al., J. Phys.:Condens. Matter 29 465901 (2017);
         "P. Giannozzi et al., J. Chem. Phys. 152 154105 (2020);
          URL http://www.quantum-espresso.org", 
     in publications or presentations arising from this work. More details at
     http://www.quantum-espresso.org/quote

     Parallel version (MPI), running on     6 processors

     MPI processes distributed on     1 nodes
     R & G space division:  proc/nbgrp/npool/nimage =       6
     56017 MiB available memory on the printing compute node when the environment starts

     Reading input from in_files/TaS2_bench_6.scf

     Current dimensions of program PWSCF are:
     Max number of different atomic species (ntypx) = 10
     Max number of k-points (npk) =  40000
     Max angular momentum in pseudopotentials (lmaxx) =  4

     Subspace diagonalization in iterative solution of the eigenvalue problem:
     a serial algorithm will be used


     Parallelization info
     --------------------
     sticks:   dense  smooth     PW     G-vecs:    dense   smooth      PW
     Min         182      92     27                22000     7790    1269
     Max         184      94     28                22012     7794    1284
     Sum        1099     559    163               132031    46753    7647

     Using Slab Decomposition



     bravais-lattice index     =            4
     lattice parameter (alat)  =       6.3117  a.u.
     unit-cell volume          =     977.9382 (a.u.)^3
     number of atoms/cell      =            3
     number of atomic types    =            2
     number of electrons       =        25.00
     number of Kohn-Sham states=           17
     kinetic-energy cutoff     =      50.0000  Ry
     charge density cutoff     =     400.0000  Ry
     scf convergence threshold =      1.0E-18
     mixing beta               =       0.7000
     number of iterations used =            8  plain     mixing
     Exchange-correlation=  SLA  PW   PBX  PBC
                           (   1   4   3   4   0   0   0)

     celldm(1)=   6.311685  celldm(2)=   0.000000  celldm(3)=   4.491018
     celldm(4)=   0.000000  celldm(5)=   0.000000  celldm(6)=   0.000000

     crystal axes: (cart. coord. in units of alat)
               a(1) = (   1.000000   0.000000   0.000000 )  
               a(2) = (  -0.500000   0.866025   0.000000 )  
               a(3) = (   0.000000   0.000000   4.491018 )  

     reciprocal axes: (cart. coord. in units 2 pi/alat)
               b(1) = (  1.000000  0.577350 -0.000000 )  
               b(2) = (  0.000000  1.154701  0.000000 )  
               b(3) = (  0.000000 -0.000000  0.222667 )  


     PseudoPot. # 1 for Ta read from file:
     ./pseudos/Ta_pbe_v1.uspp.F.UPF
     MD5 check sum: f8bbe9446314a3b8ea5d9f3e3836c939
     Pseudo is Ultrasoft + core correction, Zval = 13.0
     Generated by new atomic code, or converted to UPF format
     Using radial grid of  921 points,  7 beta functions with: 
                l(1) =   0
                l(2) =   0
                l(3) =   1
                l(4) =   1
                l(5) =   2
                l(6) =   2
                l(7) =   3
     Q(r) pseudized with  6 coefficients,  rinner =    1.300   1.300   1.300
                                                       1.300   1.300   1.300
                                                       1.300

     PseudoPot. # 2 for S  read from file:
     ./pseudos/s_pbe_v1.4.uspp.F.UPF
     MD5 check sum: 88d86576ff6df21479756cfb9bdac1df
     Pseudo is Ultrasoft + core correction, Zval =  6.0
     Generated by new atomic code, or converted to UPF format
     Using radial grid of  907 points,  6 beta functions with: 
                l(1) =   0
                l(2) =   0
                l(3) =   1
                l(4) =   1
                l(5) =   2
                l(6) =   2
     Q(r) pseudized with  8 coefficients,  rinner =    1.300   1.300   1.300
                                                       1.300   1.300

     atomic species   valence    mass     pseudopotential
        Ta            13.00   180.95000     Ta( 1.00)
        S              6.00    32.06000     S ( 1.00)

     12 Sym. Ops. (no inversion) found



   Cartesian axes

     site n.     atom                  positions (alat units)
         1           S   tau(   1) = (  -0.0000000   0.5773503   0.4679075  )
         2           Ta  tau(   2) = (   0.0000000   0.0000000   0.0000000  )
         3           S   tau(   3) = (  -0.0000000   0.5773503  -0.4679075  )

     number of k points=   217  Marzari-Vanderbilt smearing, width (Ry)=  0.0020

     Number of k-points >= 100: set verbosity='high' to print them.

     Dense  grid:   132031 G-vectors     FFT dimensions: (  45,  45, 192)

     Smooth grid:    46753 G-vectors     FFT dimensions: (  30,  30, 128)

     Estimated max dynamical RAM per process >     194.93 MB

     Estimated total dynamical RAM >       1.14 GB
 ----2D----2D----2D----2D----2D----2D----2D----2D----2D----2D----2D----2D
  The code is running with the 2D cutoff
  Please refer to:
  Sohier, T., Calandra, M., & Mauri, F. (2017), 
  Density functional perturbation theory for gated two-dimensional heterostructures:
  Theoretical developments and application to flexural phonons in graphene.
  Physical Review B, 96(7), 75448. https://doi.org/10.1103/PhysRevB.96.075448
 ----2D----2D----2D----2D----2D----2D----2D----2D----2D----2D----2D----2D

     Initial potential from superposition of free atoms

     starting charge      24.9988, renormalised to      25.0000

     negative rho (up, down):  9.496E-02 0.000E+00
     Starting wfcs are   21 randomized atomic wfcs

     total cpu time spent up to now is        6.6 secs

     Self-consistent Calculation

     iteration #  1     ecut=    50.00 Ry     beta= 0.70
     Davidson diagonalization with overlap
     ethr =  1.00E-02,  avg # of iterations =  3.1

     Threshold (ethr) on eigenvalues was too large:
     Diagonalizing with lowered threshold

     Davidson diagonalization with overlap
     ethr =  5.45E-04,  avg # of iterations =  2.9

     negative rho (up, down):  9.869E-02 0.000E+00

     total cpu time spent up to now is       32.5 secs

     total energy              =    -190.25446272 Ry
     estimated scf accuracy    <       0.14561518 Ry

     iteration #  2     ecut=    50.00 Ry     beta= 0.70
     Davidson diagonalization with overlap
     ethr =  5.82E-04,  avg # of iterations =  2.1

     negative rho (up, down):  9.950E-02 0.000E+00

     total cpu time spent up to now is       46.7 secs

     total energy              =    -190.22266639 Ry
     estimated scf accuracy    <       0.38154741 Ry

     iteration #  3     ecut=    50.00 Ry     beta= 0.70
     Davidson diagonalization with overlap
     ethr =  5.82E-04,  avg # of iterations =  2.0

     negative rho (up, down):  1.002E-01 0.000E+00

     total cpu time spent up to now is       59.6 secs

     total energy              =    -190.30428467 Ry
     estimated scf accuracy    <       0.05114917 Ry

     iteration #  4     ecut=    50.00 Ry     beta= 0.70
     Davidson diagonalization with overlap
     ethr =  2.05E-04,  avg # of iterations =  2.0

     negative rho (up, down):  1.010E-01 0.000E+00

     total cpu time spent up to now is       71.1 secs

     total energy              =    -190.31090284 Ry
     estimated scf accuracy    <       0.00103624 Ry

     iteration #  5     ecut=    50.00 Ry     beta= 0.70
     Davidson diagonalization with overlap
     ethr =  4.14E-06,  avg # of iterations =  4.7

     negative rho (up, down):  1.010E-01 0.000E+00

     total cpu time spent up to now is       88.5 secs

     total energy              =    -190.31142474 Ry
     estimated scf accuracy    <       0.00062844 Ry

     iteration #  6     ecut=    50.00 Ry     beta= 0.70
     Davidson diagonalization with overlap
     ethr =  2.51E-06,  avg # of iterations =  2.0

     negative rho (up, down):  1.011E-01 0.000E+00

     total cpu time spent up to now is      100.2 secs

     total energy              =    -190.31146161 Ry
     estimated scf accuracy    <       0.00005210 Ry

     iteration #  7     ecut=    50.00 Ry     beta= 0.70
     Davidson diagonalization with overlap
     ethr =  2.08E-07,  avg # of iterations =  3.5

     negative rho (up, down):  1.011E-01 0.000E+00

     total cpu time spent up to now is      113.9 secs

     total energy              =    -190.31148286 Ry
     estimated scf accuracy    <       0.00000706 Ry

     iteration #  8     ecut=    50.00 Ry     beta= 0.70
     Davidson diagonalization with overlap
     ethr =  2.82E-08,  avg # of iterations =  2.9

     negative rho (up, down):  1.011E-01 0.000E+00

     total cpu time spent up to now is      127.3 secs

     total energy              =    -190.31148501 Ry
     estimated scf accuracy    <       0.00000004 Ry

     iteration #  9     ecut=    50.00 Ry     beta= 0.70
     Davidson diagonalization with overlap
     ethr =  1.55E-10,  avg # of iterations =  7.2

     negative rho (up, down):  1.011E-01 0.000E+00

     total cpu time spent up to now is      153.8 secs

     total energy              =    -190.31148511 Ry
     estimated scf accuracy    <       0.00000043 Ry

     iteration # 10     ecut=    50.00 Ry     beta= 0.70
     Davidson diagonalization with overlap
     ethr =  1.55E-10,  avg # of iterations =  3.1

     negative rho (up, down):  1.011E-01 0.000E+00

     total cpu time spent up to now is      168.4 secs

     total energy              =    -190.31148519 Ry
     estimated scf accuracy    <          1.1E-09 Ry

     iteration # 11     ecut=    50.00 Ry     beta= 0.70
     Davidson diagonalization with overlap
     ethr =  4.32E-12,  avg # of iterations =  5.0

     negative rho (up, down):  1.011E-01 0.000E+00

     total cpu time spent up to now is      187.1 secs

     total energy              =    -190.31148518 Ry
     estimated scf accuracy    <       0.00000004 Ry

     iteration # 12     ecut=    50.00 Ry     beta= 0.70
     Davidson diagonalization with overlap
     ethr =  4.32E-12,  avg # of iterations =  4.0

     negative rho (up, down):  1.011E-01 0.000E+00

     total cpu time spent up to now is      203.6 secs

     total energy              =    -190.31148519 Ry
     estimated scf accuracy    <          3.2E-10 Ry

     iteration # 13     ecut=    50.00 Ry     beta= 0.70
     Davidson diagonalization with overlap
     ethr =  1.26E-12,  avg # of iterations =  2.8

     negative rho (up, down):  1.011E-01 0.000E+00

     total cpu time spent up to now is      216.6 secs

     total energy              =    -190.31148519 Ry
     estimated scf accuracy    <          2.7E-12 Ry

     iteration # 14     ecut=    50.00 Ry     beta= 0.70
     Davidson diagonalization with overlap
     ethr =  1.00E-13,  avg # of iterations =  2.5

     negative rho (up, down):  1.011E-01 0.000E+00

     total cpu time spent up to now is      229.0 secs

     total energy              =    -190.31148519 Ry
     estimated scf accuracy    <          1.7E-13 Ry

     iteration # 15     ecut=    50.00 Ry     beta= 0.70
     Davidson diagonalization with overlap
     ethr =  1.00E-13,  avg # of iterations =  1.0

     negative rho (up, down):  1.011E-01 0.000E+00

     total cpu time spent up to now is      239.5 secs

     total energy              =    -190.31148519 Ry
     estimated scf accuracy    <          4.0E-13 Ry

     iteration # 16     ecut=    50.00 Ry     beta= 0.70
     Davidson diagonalization with overlap
     ethr =  1.00E-13,  avg # of iterations =  1.0

     negative rho (up, down):  1.011E-01 0.000E+00

     total cpu time spent up to now is      250.0 secs

     total energy              =    -190.31148519 Ry
     estimated scf accuracy    <          5.8E-14 Ry

     iteration # 17     ecut=    50.00 Ry     beta= 0.70
     Davidson diagonalization with overlap
     ethr =  1.00E-13,  avg # of iterations =  1.0

     negative rho (up, down):  1.011E-01 0.000E+00

     total cpu time spent up to now is      260.4 secs

     total energy              =    -190.31148519 Ry
     estimated scf accuracy    <          8.0E-16 Ry

     iteration # 18     ecut=    50.00 Ry     beta= 0.70
     Davidson diagonalization with overlap
     ethr =  1.00E-13,  avg # of iterations =  1.0

     negative rho (up, down):  1.011E-01 0.000E+00

     total cpu time spent up to now is      270.9 secs

     total energy              =    -190.31148519 Ry
     estimated scf accuracy    <          5.6E-15 Ry

     iteration # 19     ecut=    50.00 Ry     beta= 0.70
     Davidson diagonalization with overlap
     ethr =  1.00E-13,  avg # of iterations =  1.0

     negative rho (up, down):  1.011E-01 0.000E+00

     total cpu time spent up to now is      281.4 secs

     total energy              =    -190.31148519 Ry
     estimated scf accuracy    <          3.3E-15 Ry

     iteration # 20     ecut=    50.00 Ry     beta= 0.70
     Davidson diagonalization with overlap
     ethr =  1.00E-13,  avg # of iterations =  1.0

     negative rho (up, down):  1.011E-01 0.000E+00

     total cpu time spent up to now is      291.9 secs

     total energy              =    -190.31148519 Ry
     estimated scf accuracy    <          4.7E-15 Ry

     iteration # 21     ecut=    50.00 Ry     beta= 0.70
     Davidson diagonalization with overlap
     ethr =  1.00E-13,  avg # of iterations =  1.0

     negative rho (up, down):  1.011E-01 0.000E+00

     total cpu time spent up to now is      302.3 secs

     total energy              =    -190.31148519 Ry
     estimated scf accuracy    <          1.4E-14 Ry

     iteration # 22     ecut=    50.00 Ry     beta= 0.70
     Davidson diagonalization with overlap
     ethr =  1.00E-13,  avg # of iterations =  1.0

     negative rho (up, down):  1.011E-01 0.000E+00

     total cpu time spent up to now is      312.8 secs

     total energy              =    -190.31148519 Ry
     estimated scf accuracy    <          1.1E-15 Ry

     iteration # 23     ecut=    50.00 Ry     beta= 0.70
     Davidson diagonalization with overlap
     ethr =  1.00E-13,  avg # of iterations =  1.0

     negative rho (up, down):  1.011E-01 0.000E+00

     total cpu time spent up to now is      323.3 secs

     total energy              =    -190.31148519 Ry
     estimated scf accuracy    <          6.4E-17 Ry

     iteration # 24     ecut=    50.00 Ry     beta= 0.70
     Davidson diagonalization with overlap
     ethr =  1.00E-13,  avg # of iterations =  1.0

     negative rho (up, down):  1.011E-01 0.000E+00

     total cpu time spent up to now is      333.8 secs

     total energy              =    -190.31148519 Ry
     estimated scf accuracy    <          1.0E-17 Ry

     iteration # 25     ecut=    50.00 Ry     beta= 0.70
     Davidson diagonalization with overlap
     ethr =  1.00E-13,  avg # of iterations =  1.0

     negative rho (up, down):  1.011E-01 0.000E+00

     total cpu time spent up to now is      344.3 secs

     total energy              =    -190.31148519 Ry
     estimated scf accuracy    <          1.2E-17 Ry

     iteration # 26     ecut=    50.00 Ry     beta= 0.70
     Davidson diagonalization with overlap
     ethr =  1.00E-13,  avg # of iterations =  1.0

     negative rho (up, down):  1.011E-01 0.000E+00

     total cpu time spent up to now is      354.7 secs

     total energy              =    -190.31148519 Ry
     estimated scf accuracy    <          3.5E-17 Ry

     iteration # 27     ecut=    50.00 Ry     beta= 0.70
     Davidson diagonalization with overlap
     ethr =  1.00E-13,  avg # of iterations =  1.0

     negative rho (up, down):  1.011E-01 0.000E+00

     total cpu time spent up to now is      365.2 secs

     total energy              =    -190.31148519 Ry
     estimated scf accuracy    <          2.3E-16 Ry

     iteration # 28     ecut=    50.00 Ry     beta= 0.70
     Davidson diagonalization with overlap
     ethr =  1.00E-13,  avg # of iterations =  1.0

     negative rho (up, down):  1.011E-01 0.000E+00

     total cpu time spent up to now is      375.7 secs

     total energy              =    -190.31148519 Ry
     estimated scf accuracy    <          1.3E-16 Ry

     iteration # 29     ecut=    50.00 Ry     beta= 0.70
     Davidson diagonalization with overlap
     ethr =  1.00E-13,  avg # of iterations =  1.0

     negative rho (up, down):  1.011E-01 0.000E+00

     total cpu time spent up to now is      386.1 secs

     total energy              =    -190.31148519 Ry
     estimated scf accuracy    <          8.7E-18 Ry

     iteration # 30     ecut=    50.00 Ry     beta= 0.70
     Davidson diagonalization with overlap
     ethr =  1.00E-13,  avg # of iterations =  1.0

     negative rho (up, down):  1.011E-01 0.000E+00

     total cpu time spent up to now is      396.6 secs

     total energy              =    -190.31148519 Ry
     estimated scf accuracy    <          2.0E-17 Ry

     iteration # 31     ecut=    50.00 Ry     beta= 0.70
     Davidson diagonalization with overlap
     ethr =  1.00E-13,  avg # of iterations =  1.0

     negative rho (up, down):  1.011E-01 0.000E+00

     total cpu time spent up to now is      407.1 secs

     total energy              =    -190.31148519 Ry
     estimated scf accuracy    <          5.5E-17 Ry

     iteration # 32     ecut=    50.00 Ry     beta= 0.70
     Davidson diagonalization with overlap
     ethr =  1.00E-13,  avg # of iterations =  1.0

     negative rho (up, down):  1.011E-01 0.000E+00

     total cpu time spent up to now is      417.6 secs

     total energy              =    -190.31148519 Ry
     estimated scf accuracy    <          5.8E-17 Ry

     iteration # 33     ecut=    50.00 Ry     beta= 0.70
     Davidson diagonalization with overlap
     ethr =  1.00E-13,  avg # of iterations =  1.0

     negative rho (up, down):  1.011E-01 0.000E+00

     total cpu time spent up to now is      428.1 secs

     total energy              =    -190.31148519 Ry
     estimated scf accuracy    <          5.5E-17 Ry

     iteration # 34     ecut=    50.00 Ry     beta= 0.70
     Davidson diagonalization with overlap
     ethr =  1.00E-13,  avg # of iterations =  1.0

     negative rho (up, down):  1.011E-01 0.000E+00

     total cpu time spent up to now is      438.5 secs

     total energy              =    -190.31148519 Ry
     estimated scf accuracy    <          1.8E-17 Ry

     iteration # 35     ecut=    50.00 Ry     beta= 0.70
     Davidson diagonalization with overlap
     ethr =  1.00E-13,  avg # of iterations =  1.0

     negative rho (up, down):  1.011E-01 0.000E+00

     total cpu time spent up to now is      449.0 secs

     total energy              =    -190.31148519 Ry
     estimated scf accuracy    <          1.5E-16 Ry

     iteration # 36     ecut=    50.00 Ry     beta= 0.70
     Davidson diagonalization with overlap
     ethr =  1.00E-13,  avg # of iterations =  1.0

     negative rho (up, down):  1.011E-01 0.000E+00

     total cpu time spent up to now is      459.5 secs

     total energy              =    -190.31148519 Ry
     estimated scf accuracy    <          2.5E-17 Ry

     iteration # 37     ecut=    50.00 Ry     beta= 0.70
     Davidson diagonalization with overlap
     ethr =  1.00E-13,  avg # of iterations =  1.0

     negative rho (up, down):  1.011E-01 0.000E+00

     total cpu time spent up to now is      470.0 secs

     total energy              =    -190.31148519 Ry
     estimated scf accuracy    <          5.4E-18 Ry

     iteration # 38     ecut=    50.00 Ry     beta= 0.70
     Davidson diagonalization with overlap
     ethr =  1.00E-13,  avg # of iterations =  1.0

     negative rho (up, down):  1.011E-01 0.000E+00

     total cpu time spent up to now is      480.4 secs

     total energy              =    -190.31148519 Ry
     estimated scf accuracy    <          1.8E-18 Ry

     iteration # 39     ecut=    50.00 Ry     beta= 0.70
     Davidson diagonalization with overlap
     ethr =  1.00E-13,  avg # of iterations =  1.0

     negative rho (up, down):  1.011E-01 0.000E+00

     total cpu time spent up to now is      490.9 secs

     End of self-consistent calculation

     Number of k-points >= 100: set verbosity='high' to print the bands.

     the Fermi energy is    -5.9182 ev

!    total energy              =    -190.31148519 Ry
     estimated scf accuracy    <          6.7E-19 Ry
     smearing contrib. (-TS)   =       0.00000705 Ry
     internal energy E=F+TS    =    -190.31149224 Ry

     The total energy is F=E-TS. E is the sum of the following terms:
     one-electron contribution =   -1044.74925539 Ry
     hartree contribution      =     517.61800545 Ry
     xc contribution           =     -59.14415725 Ry
     ewald contribution        =     395.96391495 Ry

     convergence has been achieved in  39 iterations

     Writing all to output data dir /fastscratch/tsievers/QE_TMP_DIR/TaS2_bench_nprocs_48x48_6.save/

     init_run     :      6.05s CPU      6.36s WALL (       1 calls)
     electrons    :    462.07s CPU    484.36s WALL (       1 calls)

     Called by init_run:
     wfcinit      :      4.69s CPU      4.92s WALL (       1 calls)
     potinit      :      0.34s CPU      0.34s WALL (       1 calls)
     hinit0       :      0.74s CPU      0.75s WALL (       1 calls)

     Called by electrons:
     c_bands      :    381.70s CPU    395.11s WALL (      40 calls)
     sum_band     :     69.74s CPU     75.38s WALL (      40 calls)
     v_of_rho     :      1.86s CPU      1.90s WALL (      40 calls)
     newd         :      8.75s CPU     11.95s WALL (      40 calls)
     mix_rho      :      0.18s CPU      0.20s WALL (      40 calls)

     Called by c_bands:
     init_us_2    :     12.57s CPU     12.86s WALL (   17577 calls)
     init_us_2:cp :     12.52s CPU     12.83s WALL (   17577 calls)
     cegterg      :    351.40s CPU    364.36s WALL (    8680 calls)

     Called by *egterg:
     cdiaghg      :      9.55s CPU      9.65s WALL (   24704 calls)
     h_psi        :    242.43s CPU    254.89s WALL (   25138 calls)
     s_psi        :     35.47s CPU     35.76s WALL (   25138 calls)
     g_psi        :      1.58s CPU      1.59s WALL (   16241 calls)

     Called by h_psi:
     h_psi:calbec :     33.31s CPU     35.20s WALL (   25138 calls)
     vloc_psi     :    173.45s CPU    183.03s WALL (   25138 calls)
     add_vuspsi   :     34.80s CPU     35.79s WALL (   25138 calls)

     General routines
     calbec       :     47.30s CPU     49.91s WALL (   33818 calls)
     fft          :      0.90s CPU      0.94s WALL (     519 calls)
     ffts         :      0.14s CPU      0.14s WALL (      80 calls)
     fftw         :    189.29s CPU    199.48s WALL (  843958 calls)
     interpolate  :      0.17s CPU      0.18s WALL (      40 calls)

     Parallel routines

     PWSCF        :   7m48.59s CPU   8m18.13s WALL


   This run was terminated on:  23: 5: 1  11Feb2022            

=------------------------------------------------------------------------------=
   JOB DONE.
=------------------------------------------------------------------------------=
