Module for gcc 10.2:
(GNU C/C++/FORTRAN compilers v10.2.0) - loaded.
Module for OpenMPI 4.1.0-gcc10.2-infiniband loaded.

     Program PWSCF v.7.0 starts on 12Feb2022 at  5:24:24 

     This program is part of the open-source Quantum ESPRESSO suite
     for quantum simulation of materials; please cite
         "P. Giannozzi et al., J. Phys.:Condens. Matter 21 395502 (2009);
         "P. Giannozzi et al., J. Phys.:Condens. Matter 29 465901 (2017);
         "P. Giannozzi et al., J. Chem. Phys. 152 154105 (2020);
          URL http://www.quantum-espresso.org", 
     in publications or presentations arising from this work. More details at
     http://www.quantum-espresso.org/quote

     Parallel version (MPI), running on    24 processors

     MPI processes distributed on     2 nodes
     R & G space division:  proc/nbgrp/npool/nimage =      24
     53475 MiB available memory on the printing compute node when the environment starts

     Reading input from in_files/TaS2_bench_24.scf

     Current dimensions of program PWSCF are:
     Max number of different atomic species (ntypx) = 10
     Max number of k-points (npk) =  40000
     Max angular momentum in pseudopotentials (lmaxx) =  4

     Subspace diagonalization in iterative solution of the eigenvalue problem:
     a serial algorithm will be used


     Parallelization info
     --------------------
     sticks:   dense  smooth     PW     G-vecs:    dense   smooth      PW
     Min          45      23      6                 5496     1945     304
     Max          47      24      7                 5509     1951     329
     Sum        1099     559    163               132031    46753    7647

     Using Slab Decomposition



     bravais-lattice index     =            4
     lattice parameter (alat)  =       6.3117  a.u.
     unit-cell volume          =     977.9382 (a.u.)^3
     number of atoms/cell      =            3
     number of atomic types    =            2
     number of electrons       =        25.00
     number of Kohn-Sham states=           17
     kinetic-energy cutoff     =      50.0000  Ry
     charge density cutoff     =     400.0000  Ry
     scf convergence threshold =      1.0E-18
     mixing beta               =       0.7000
     number of iterations used =            8  plain     mixing
     Exchange-correlation=  SLA  PW   PBX  PBC
                           (   1   4   3   4   0   0   0)

     celldm(1)=   6.311685  celldm(2)=   0.000000  celldm(3)=   4.491018
     celldm(4)=   0.000000  celldm(5)=   0.000000  celldm(6)=   0.000000

     crystal axes: (cart. coord. in units of alat)
               a(1) = (   1.000000   0.000000   0.000000 )  
               a(2) = (  -0.500000   0.866025   0.000000 )  
               a(3) = (   0.000000   0.000000   4.491018 )  

     reciprocal axes: (cart. coord. in units 2 pi/alat)
               b(1) = (  1.000000  0.577350 -0.000000 )  
               b(2) = (  0.000000  1.154701  0.000000 )  
               b(3) = (  0.000000 -0.000000  0.222667 )  


     PseudoPot. # 1 for Ta read from file:
     ./pseudos/Ta_pbe_v1.uspp.F.UPF
     MD5 check sum: f8bbe9446314a3b8ea5d9f3e3836c939
     Pseudo is Ultrasoft + core correction, Zval = 13.0
     Generated by new atomic code, or converted to UPF format
     Using radial grid of  921 points,  7 beta functions with: 
                l(1) =   0
                l(2) =   0
                l(3) =   1
                l(4) =   1
                l(5) =   2
                l(6) =   2
                l(7) =   3
     Q(r) pseudized with  6 coefficients,  rinner =    1.300   1.300   1.300
                                                       1.300   1.300   1.300
                                                       1.300

     PseudoPot. # 2 for S  read from file:
     ./pseudos/s_pbe_v1.4.uspp.F.UPF
     MD5 check sum: 88d86576ff6df21479756cfb9bdac1df
     Pseudo is Ultrasoft + core correction, Zval =  6.0
     Generated by new atomic code, or converted to UPF format
     Using radial grid of  907 points,  6 beta functions with: 
                l(1) =   0
                l(2) =   0
                l(3) =   1
                l(4) =   1
                l(5) =   2
                l(6) =   2
     Q(r) pseudized with  8 coefficients,  rinner =    1.300   1.300   1.300
                                                       1.300   1.300

     atomic species   valence    mass     pseudopotential
        Ta            13.00   180.95000     Ta( 1.00)
        S              6.00    32.06000     S ( 1.00)

     12 Sym. Ops. (no inversion) found



   Cartesian axes

     site n.     atom                  positions (alat units)
         1           S   tau(   1) = (  -0.0000000   0.5773503   0.4679075  )
         2           Ta  tau(   2) = (   0.0000000   0.0000000   0.0000000  )
         3           S   tau(   3) = (  -0.0000000   0.5773503  -0.4679075  )

     number of k points=   217  Marzari-Vanderbilt smearing, width (Ry)=  0.0020

     Number of k-points >= 100: set verbosity='high' to print them.

     Dense  grid:   132031 G-vectors     FFT dimensions: (  45,  45, 192)

     Smooth grid:    46753 G-vectors     FFT dimensions: (  30,  30, 128)

     Estimated max dynamical RAM per process >      53.19 MB

     Estimated total dynamical RAM >       1.25 GB
 ----2D----2D----2D----2D----2D----2D----2D----2D----2D----2D----2D----2D
  The code is running with the 2D cutoff
  Please refer to:
  Sohier, T., Calandra, M., & Mauri, F. (2017), 
  Density functional perturbation theory for gated two-dimensional heterostructures:
  Theoretical developments and application to flexural phonons in graphene.
  Physical Review B, 96(7), 75448. https://doi.org/10.1103/PhysRevB.96.075448
 ----2D----2D----2D----2D----2D----2D----2D----2D----2D----2D----2D----2D

     Initial potential from superposition of free atoms

     starting charge      24.9988, renormalised to      25.0000

     negative rho (up, down):  9.496E-02 0.000E+00
     Starting wfcs are   21 randomized atomic wfcs

     total cpu time spent up to now is        7.0 secs

     Self-consistent Calculation

     iteration #  1     ecut=    50.00 Ry     beta= 0.70
     Davidson diagonalization with overlap
     ethr =  1.00E-02,  avg # of iterations =  3.1

     Threshold (ethr) on eigenvalues was too large:
     Diagonalizing with lowered threshold

     Davidson diagonalization with overlap
     ethr =  5.46E-04,  avg # of iterations =  2.9

     negative rho (up, down):  9.869E-02 0.000E+00

     total cpu time spent up to now is       36.4 secs

     total energy              =    -190.25452686 Ry
     estimated scf accuracy    <       0.14549637 Ry

     iteration #  2     ecut=    50.00 Ry     beta= 0.70
     Davidson diagonalization with overlap
     ethr =  5.82E-04,  avg # of iterations =  2.1

     negative rho (up, down):  9.950E-02 0.000E+00

     total cpu time spent up to now is       52.2 secs

     total energy              =    -190.22279650 Ry
     estimated scf accuracy    <       0.38094861 Ry

     iteration #  3     ecut=    50.00 Ry     beta= 0.70
     Davidson diagonalization with overlap
     ethr =  5.82E-04,  avg # of iterations =  2.0

     negative rho (up, down):  1.002E-01 0.000E+00

     total cpu time spent up to now is       66.5 secs

     total energy              =    -190.30429081 Ry
     estimated scf accuracy    <       0.05110111 Ry

     iteration #  4     ecut=    50.00 Ry     beta= 0.70
     Davidson diagonalization with overlap
     ethr =  2.04E-04,  avg # of iterations =  2.0

     negative rho (up, down):  1.010E-01 0.000E+00

     total cpu time spent up to now is       79.2 secs

     total energy              =    -190.31090884 Ry
     estimated scf accuracy    <       0.00103143 Ry

     iteration #  5     ecut=    50.00 Ry     beta= 0.70
     Davidson diagonalization with overlap
     ethr =  4.13E-06,  avg # of iterations =  4.7

     negative rho (up, down):  1.010E-01 0.000E+00

     total cpu time spent up to now is       98.8 secs

     total energy              =    -190.31142622 Ry
     estimated scf accuracy    <       0.00061591 Ry

     iteration #  6     ecut=    50.00 Ry     beta= 0.70
     Davidson diagonalization with overlap
     ethr =  2.46E-06,  avg # of iterations =  2.0

     negative rho (up, down):  1.011E-01 0.000E+00

     total cpu time spent up to now is      111.8 secs

     total energy              =    -190.31146157 Ry
     estimated scf accuracy    <       0.00005214 Ry

     iteration #  7     ecut=    50.00 Ry     beta= 0.70
     Davidson diagonalization with overlap
     ethr =  2.09E-07,  avg # of iterations =  3.6

     negative rho (up, down):  1.011E-01 0.000E+00

     total cpu time spent up to now is      127.5 secs

     total energy              =    -190.31148275 Ry
     estimated scf accuracy    <       0.00000725 Ry

     iteration #  8     ecut=    50.00 Ry     beta= 0.70
     Davidson diagonalization with overlap
     ethr =  2.90E-08,  avg # of iterations =  2.8

     negative rho (up, down):  1.011E-01 0.000E+00

     total cpu time spent up to now is      142.5 secs

     total energy              =    -190.31148503 Ry
     estimated scf accuracy    <       0.00000008 Ry

     iteration #  9     ecut=    50.00 Ry     beta= 0.70
     Davidson diagonalization with overlap
     ethr =  3.02E-10,  avg # of iterations =  6.5

     negative rho (up, down):  1.011E-01 0.000E+00

     total cpu time spent up to now is      169.2 secs

     total energy              =    -190.31148512 Ry
     estimated scf accuracy    <       0.00000045 Ry

     iteration # 10     ecut=    50.00 Ry     beta= 0.70
     Davidson diagonalization with overlap
     ethr =  3.02E-10,  avg # of iterations =  3.0

     negative rho (up, down):  1.011E-01 0.000E+00

     total cpu time spent up to now is      184.7 secs

     total energy              =    -190.31148519 Ry
     estimated scf accuracy    <          2.1E-09 Ry

     iteration # 11     ecut=    50.00 Ry     beta= 0.70
     Davidson diagonalization with overlap
     ethr =  8.32E-12,  avg # of iterations =  4.2

     negative rho (up, down):  1.011E-01 0.000E+00

     total cpu time spent up to now is      204.1 secs

     total energy              =    -190.31148518 Ry
     estimated scf accuracy    <       0.00000004 Ry

     iteration # 12     ecut=    50.00 Ry     beta= 0.70
     Davidson diagonalization with overlap
     ethr =  8.32E-12,  avg # of iterations =  3.8

     negative rho (up, down):  1.011E-01 0.000E+00

     total cpu time spent up to now is      221.5 secs

     total energy              =    -190.31148519 Ry
     estimated scf accuracy    <          5.3E-10 Ry

     iteration # 13     ecut=    50.00 Ry     beta= 0.70
     Davidson diagonalization with overlap
     ethr =  2.13E-12,  avg # of iterations =  2.2

     negative rho (up, down):  1.011E-01 0.000E+00

     total cpu time spent up to now is      235.7 secs

     total energy              =    -190.31148519 Ry
     estimated scf accuracy    <          2.5E-11 Ry

     iteration # 14     ecut=    50.00 Ry     beta= 0.70
     Davidson diagonalization with overlap
     ethr =  1.02E-13,  avg # of iterations =  3.9

     negative rho (up, down):  1.011E-01 0.000E+00

     total cpu time spent up to now is      252.5 secs

     total energy              =    -190.31148519 Ry
     estimated scf accuracy    <          3.2E-11 Ry

     iteration # 15     ecut=    50.00 Ry     beta= 0.70
     Davidson diagonalization with overlap
     ethr =  1.02E-13,  avg # of iterations =  2.0

     negative rho (up, down):  1.011E-01 0.000E+00

     total cpu time spent up to now is      265.8 secs

     total energy              =    -190.31148519 Ry
     estimated scf accuracy    <          1.7E-12 Ry

     iteration # 16     ecut=    50.00 Ry     beta= 0.70
     Davidson diagonalization with overlap
     ethr =  1.00E-13,  avg # of iterations =  1.2

     negative rho (up, down):  1.011E-01 0.000E+00

     total cpu time spent up to now is      277.8 secs

     total energy              =    -190.31148519 Ry
     estimated scf accuracy    <          3.4E-13 Ry

     iteration # 17     ecut=    50.00 Ry     beta= 0.70
     Davidson diagonalization with overlap
     ethr =  1.00E-13,  avg # of iterations =  1.0

     negative rho (up, down):  1.011E-01 0.000E+00

     total cpu time spent up to now is      289.6 secs

     total energy              =    -190.31148519 Ry
     estimated scf accuracy    <          1.0E-13 Ry

     iteration # 18     ecut=    50.00 Ry     beta= 0.70
     Davidson diagonalization with overlap
     ethr =  1.00E-13,  avg # of iterations =  1.0

     negative rho (up, down):  1.011E-01 0.000E+00

     total cpu time spent up to now is      301.4 secs

     total energy              =    -190.31148519 Ry
     estimated scf accuracy    <          7.0E-14 Ry

     iteration # 19     ecut=    50.00 Ry     beta= 0.70
     Davidson diagonalization with overlap
     ethr =  1.00E-13,  avg # of iterations =  1.0

     negative rho (up, down):  1.011E-01 0.000E+00

     total cpu time spent up to now is      313.2 secs

     total energy              =    -190.31148519 Ry
     estimated scf accuracy    <          2.1E-14 Ry

     iteration # 20     ecut=    50.00 Ry     beta= 0.70
     Davidson diagonalization with overlap
     ethr =  1.00E-13,  avg # of iterations =  1.0

     negative rho (up, down):  1.011E-01 0.000E+00

     total cpu time spent up to now is      325.0 secs

     total energy              =    -190.31148519 Ry
     estimated scf accuracy    <          4.6E-16 Ry

     iteration # 21     ecut=    50.00 Ry     beta= 0.70
     Davidson diagonalization with overlap
     ethr =  1.00E-13,  avg # of iterations =  1.0

     negative rho (up, down):  1.011E-01 0.000E+00

     total cpu time spent up to now is      336.8 secs

     total energy              =    -190.31148519 Ry
     estimated scf accuracy    <          1.4E-16 Ry

     iteration # 22     ecut=    50.00 Ry     beta= 0.70
     Davidson diagonalization with overlap
     ethr =  1.00E-13,  avg # of iterations =  1.0

     negative rho (up, down):  1.011E-01 0.000E+00

     total cpu time spent up to now is      348.7 secs

     total energy              =    -190.31148519 Ry
     estimated scf accuracy    <          1.8E-16 Ry

     iteration # 23     ecut=    50.00 Ry     beta= 0.70
     Davidson diagonalization with overlap
     ethr =  1.00E-13,  avg # of iterations =  1.0

     negative rho (up, down):  1.011E-01 0.000E+00

     total cpu time spent up to now is      360.5 secs

     total energy              =    -190.31148519 Ry
     estimated scf accuracy    <          3.4E-16 Ry

     iteration # 24     ecut=    50.00 Ry     beta= 0.70
     Davidson diagonalization with overlap
     ethr =  1.00E-13,  avg # of iterations =  1.0

     negative rho (up, down):  1.011E-01 0.000E+00

     total cpu time spent up to now is      372.3 secs

     total energy              =    -190.31148519 Ry
     estimated scf accuracy    <          7.5E-16 Ry

     iteration # 25     ecut=    50.00 Ry     beta= 0.70
     Davidson diagonalization with overlap
     ethr =  1.00E-13,  avg # of iterations =  1.0

     negative rho (up, down):  1.011E-01 0.000E+00

     total cpu time spent up to now is      384.1 secs

     total energy              =    -190.31148519 Ry
     estimated scf accuracy    <          3.8E-17 Ry

     iteration # 26     ecut=    50.00 Ry     beta= 0.70
     Davidson diagonalization with overlap
     ethr =  1.00E-13,  avg # of iterations =  1.0

     negative rho (up, down):  1.011E-01 0.000E+00

     total cpu time spent up to now is      395.9 secs

     total energy              =    -190.31148519 Ry
     estimated scf accuracy    <          2.4E-17 Ry

     iteration # 27     ecut=    50.00 Ry     beta= 0.70
     Davidson diagonalization with overlap
     ethr =  1.00E-13,  avg # of iterations =  1.0

     negative rho (up, down):  1.011E-01 0.000E+00

     total cpu time spent up to now is      407.7 secs

     total energy              =    -190.31148519 Ry
     estimated scf accuracy    <          1.8E-17 Ry

     iteration # 28     ecut=    50.00 Ry     beta= 0.70
     Davidson diagonalization with overlap
     ethr =  1.00E-13,  avg # of iterations =  1.0

     negative rho (up, down):  1.011E-01 0.000E+00

     total cpu time spent up to now is      419.5 secs

     total energy              =    -190.31148519 Ry
     estimated scf accuracy    <          1.1E-17 Ry

     iteration # 29     ecut=    50.00 Ry     beta= 0.70
     Davidson diagonalization with overlap
     ethr =  1.00E-13,  avg # of iterations =  1.0

     negative rho (up, down):  1.011E-01 0.000E+00

     total cpu time spent up to now is      431.3 secs

     End of self-consistent calculation

     Number of k-points >= 100: set verbosity='high' to print the bands.

     the Fermi energy is    -5.9182 ev

!    total energy              =    -190.31148519 Ry
     estimated scf accuracy    <          1.8E-20 Ry
     smearing contrib. (-TS)   =       0.00000705 Ry
     internal energy E=F+TS    =    -190.31149224 Ry

     The total energy is F=E-TS. E is the sum of the following terms:
     one-electron contribution =   -1044.74925538 Ry
     hartree contribution      =     517.61800544 Ry
     xc contribution           =     -59.14415725 Ry
     ewald contribution        =     395.96391495 Ry

     convergence has been achieved in  29 iterations

     Writing all to output data dir /fastscratch/tsievers/QE_TMP_DIR/TaS2_bench_nprocs_48x48_24.save/

     init_run     :      4.57s CPU      6.58s WALL (       1 calls)
     electrons    :    288.97s CPU    424.33s WALL (       1 calls)

     Called by init_run:
     wfcinit      :      3.78s CPU      5.64s WALL (       1 calls)
     potinit      :      0.22s CPU      0.25s WALL (       1 calls)
     hinit0       :      0.47s CPU      0.54s WALL (       1 calls)

     Called by electrons:
     c_bands      :    241.09s CPU    354.09s WALL (      30 calls)
     sum_band     :     44.63s CPU     66.21s WALL (      30 calls)
     v_of_rho     :      0.97s CPU      1.40s WALL (      30 calls)
     newd         :      1.92s CPU      1.99s WALL (      30 calls)
     mix_rho      :      0.28s CPU      0.47s WALL (      30 calls)

     Called by c_bands:
     init_us_2    :      2.00s CPU      2.64s WALL (   13237 calls)
     init_us_2:cp :      1.97s CPU      2.61s WALL (   13237 calls)
     cegterg      :    233.26s CPU    344.36s WALL (    6510 calls)

     Called by *egterg:
     cdiaghg      :      6.50s CPU      8.09s WALL (   20356 calls)
     h_psi        :    195.85s CPU    297.63s WALL (   20790 calls)
     s_psi        :      5.65s CPU      7.55s WALL (   20790 calls)
     g_psi        :      0.27s CPU      0.33s WALL (   14063 calls)

     Called by h_psi:
     h_psi:calbec :      8.57s CPU     12.81s WALL (   20790 calls)
     vloc_psi     :    181.75s CPU    277.06s WALL (   20790 calls)
     add_vuspsi   :      5.35s CPU      7.51s WALL (   20790 calls)

     General routines
     calbec       :     11.82s CPU     17.58s WALL (   27300 calls)
     fft          :      1.23s CPU      1.87s WALL (     389 calls)
     ffts         :      0.18s CPU      0.21s WALL (      60 calls)
     fftw         :    216.25s CPU    329.29s WALL (  655616 calls)
     interpolate  :      0.24s CPU      0.30s WALL (      30 calls)

     Parallel routines

     PWSCF        :   5m 2.33s CPU   7m35.49s WALL


   This run was terminated on:   5:32: 0  12Feb2022            

=------------------------------------------------------------------------------=
   JOB DONE.
=------------------------------------------------------------------------------=
