Module for gcc 10.2:
(GNU C/C++/FORTRAN compilers v10.2.0) - loaded.
Module for OpenMPI 4.1.0-gcc10.2-infiniband loaded.

     Program PWSCF v.7.0 starts on  7Feb2022 at 17:34:45 

     This program is part of the open-source Quantum ESPRESSO suite
     for quantum simulation of materials; please cite
         "P. Giannozzi et al., J. Phys.:Condens. Matter 21 395502 (2009);
         "P. Giannozzi et al., J. Phys.:Condens. Matter 29 465901 (2017);
         "P. Giannozzi et al., J. Chem. Phys. 152 154105 (2020);
          URL http://www.quantum-espresso.org", 
     in publications or presentations arising from this work. More details at
     http://www.quantum-espresso.org/quote

     Parallel version (MPI), running on    20 processors

     MPI processes distributed on     1 nodes
     R & G space division:  proc/nbgrp/npool/nimage =      20
     60421 MiB available memory on the printing compute node when the environment starts

     Reading input from in_files/TaS2_bench_20.scf

     Current dimensions of program PWSCF are:
     Max number of different atomic species (ntypx) = 10
     Max number of k-points (npk) =  40000
     Max angular momentum in pseudopotentials (lmaxx) =  4

     Subspace diagonalization in iterative solution of the eigenvalue problem:
     a serial algorithm will be used


     Parallelization info
     --------------------
     sticks:   dense  smooth     PW     G-vecs:    dense   smooth      PW
     Min          54      27      8                 6595     2331     374
     Max          56      28      9                 6608     2344     389
     Sum        1099     559    163               132031    46753    7647

     Using Slab Decomposition



     bravais-lattice index     =            4
     lattice parameter (alat)  =       6.3117  a.u.
     unit-cell volume          =     977.9382 (a.u.)^3
     number of atoms/cell      =            3
     number of atomic types    =            2
     number of electrons       =        25.00
     number of Kohn-Sham states=           17
     kinetic-energy cutoff     =      50.0000  Ry
     charge density cutoff     =     400.0000  Ry
     scf convergence threshold =      1.0E-18
     mixing beta               =       0.7000
     number of iterations used =            8  plain     mixing
     Exchange-correlation=  SLA  PW   PBX  PBC
                           (   1   4   3   4   0   0   0)

     celldm(1)=   6.311685  celldm(2)=   0.000000  celldm(3)=   4.491018
     celldm(4)=   0.000000  celldm(5)=   0.000000  celldm(6)=   0.000000

     crystal axes: (cart. coord. in units of alat)
               a(1) = (   1.000000   0.000000   0.000000 )  
               a(2) = (  -0.500000   0.866025   0.000000 )  
               a(3) = (   0.000000   0.000000   4.491018 )  

     reciprocal axes: (cart. coord. in units 2 pi/alat)
               b(1) = (  1.000000  0.577350 -0.000000 )  
               b(2) = (  0.000000  1.154701  0.000000 )  
               b(3) = (  0.000000 -0.000000  0.222667 )  


     PseudoPot. # 1 for Ta read from file:
     ./pseudos/Ta_pbe_v1.uspp.F.UPF
     MD5 check sum: f8bbe9446314a3b8ea5d9f3e3836c939
     Pseudo is Ultrasoft + core correction, Zval = 13.0
     Generated by new atomic code, or converted to UPF format
     Using radial grid of  921 points,  7 beta functions with: 
                l(1) =   0
                l(2) =   0
                l(3) =   1
                l(4) =   1
                l(5) =   2
                l(6) =   2
                l(7) =   3
     Q(r) pseudized with  6 coefficients,  rinner =    1.300   1.300   1.300
                                                       1.300   1.300   1.300
                                                       1.300

     PseudoPot. # 2 for S  read from file:
     ./pseudos/s_pbe_v1.4.uspp.F.UPF
     MD5 check sum: 88d86576ff6df21479756cfb9bdac1df
     Pseudo is Ultrasoft + core correction, Zval =  6.0
     Generated by new atomic code, or converted to UPF format
     Using radial grid of  907 points,  6 beta functions with: 
                l(1) =   0
                l(2) =   0
                l(3) =   1
                l(4) =   1
                l(5) =   2
                l(6) =   2
     Q(r) pseudized with  8 coefficients,  rinner =    1.300   1.300   1.300
                                                       1.300   1.300

     atomic species   valence    mass     pseudopotential
        Ta            13.00   180.95000     Ta( 1.00)
        S              6.00    32.06000     S ( 1.00)

     12 Sym. Ops. (no inversion) found



   Cartesian axes

     site n.     atom                  positions (alat units)
         1           S   tau(   1) = (  -0.0000000   0.5773503   0.4679075  )
         2           Ta  tau(   2) = (   0.0000000   0.0000000   0.0000000  )
         3           S   tau(   3) = (  -0.0000000   0.5773503  -0.4679075  )

     number of k points=   217  Marzari-Vanderbilt smearing, width (Ry)=  0.0020

     Number of k-points >= 100: set verbosity='high' to print them.

     Dense  grid:   132031 G-vectors     FFT dimensions: (  45,  45, 192)

     Smooth grid:    46753 G-vectors     FFT dimensions: (  30,  30, 128)

     Estimated max dynamical RAM per process >      62.66 MB

     Estimated total dynamical RAM >       1.22 GB
 ----2D----2D----2D----2D----2D----2D----2D----2D----2D----2D----2D----2D
  The code is running with the 2D cutoff
  Please refer to:
  Sohier, T., Calandra, M., & Mauri, F. (2017), 
  Density functional perturbation theory for gated two-dimensional heterostructures:
  Theoretical developments and application to flexural phonons in graphene.
  Physical Review B, 96(7), 75448. https://doi.org/10.1103/PhysRevB.96.075448
 ----2D----2D----2D----2D----2D----2D----2D----2D----2D----2D----2D----2D

     Initial potential from superposition of free atoms

     starting charge      24.9988, renormalised to      25.0000

     negative rho (up, down):  9.496E-02 0.000E+00
     Starting wfcs are   21 randomized atomic wfcs

     total cpu time spent up to now is        3.1 secs

     Self-consistent Calculation

     iteration #  1     ecut=    50.00 Ry     beta= 0.70
     Davidson diagonalization with overlap
     ethr =  1.00E-02,  avg # of iterations =  3.1

     Threshold (ethr) on eigenvalues was too large:
     Diagonalizing with lowered threshold

     Davidson diagonalization with overlap
     ethr =  5.45E-04,  avg # of iterations =  2.9

     negative rho (up, down):  9.869E-02 0.000E+00

     total cpu time spent up to now is       13.0 secs

     total energy              =    -190.25444967 Ry
     estimated scf accuracy    <       0.14563918 Ry

     iteration #  2     ecut=    50.00 Ry     beta= 0.70
     Davidson diagonalization with overlap
     ethr =  5.83E-04,  avg # of iterations =  2.1

     negative rho (up, down):  9.950E-02 0.000E+00

     total cpu time spent up to now is       18.2 secs

     total energy              =    -190.22267309 Ry
     estimated scf accuracy    <       0.38150199 Ry

     iteration #  3     ecut=    50.00 Ry     beta= 0.70
     Davidson diagonalization with overlap
     ethr =  5.83E-04,  avg # of iterations =  2.0

     negative rho (up, down):  1.002E-01 0.000E+00

     total cpu time spent up to now is       22.9 secs

     total energy              =    -190.30428187 Ry
     estimated scf accuracy    <       0.05117991 Ry

     iteration #  4     ecut=    50.00 Ry     beta= 0.70
     Davidson diagonalization with overlap
     ethr =  2.05E-04,  avg # of iterations =  2.0

     negative rho (up, down):  1.010E-01 0.000E+00

     total cpu time spent up to now is       27.1 secs

     total energy              =    -190.31090305 Ry
     estimated scf accuracy    <       0.00103736 Ry

     iteration #  5     ecut=    50.00 Ry     beta= 0.70
     Davidson diagonalization with overlap
     ethr =  4.15E-06,  avg # of iterations =  4.6

     negative rho (up, down):  1.010E-01 0.000E+00

     total cpu time spent up to now is       33.6 secs

     total energy              =    -190.31142529 Ry
     estimated scf accuracy    <       0.00062557 Ry

     iteration #  6     ecut=    50.00 Ry     beta= 0.70
     Davidson diagonalization with overlap
     ethr =  2.50E-06,  avg # of iterations =  2.0

     negative rho (up, down):  1.011E-01 0.000E+00

     total cpu time spent up to now is       38.1 secs

     total energy              =    -190.31146134 Ry
     estimated scf accuracy    <       0.00005255 Ry

     iteration #  7     ecut=    50.00 Ry     beta= 0.70
     Davidson diagonalization with overlap
     ethr =  2.10E-07,  avg # of iterations =  3.6

     negative rho (up, down):  1.011E-01 0.000E+00

     total cpu time spent up to now is       43.2 secs

     total energy              =    -190.31148275 Ry
     estimated scf accuracy    <       0.00000743 Ry

     iteration #  8     ecut=    50.00 Ry     beta= 0.70
     Davidson diagonalization with overlap
     ethr =  2.97E-08,  avg # of iterations =  2.8

     negative rho (up, down):  1.011E-01 0.000E+00

     total cpu time spent up to now is       48.1 secs

     total energy              =    -190.31148502 Ry
     estimated scf accuracy    <       0.00000006 Ry

     iteration #  9     ecut=    50.00 Ry     beta= 0.70
     Davidson diagonalization with overlap
     ethr =  2.33E-10,  avg # of iterations =  6.7

     negative rho (up, down):  1.011E-01 0.000E+00

     total cpu time spent up to now is       57.4 secs

     total energy              =    -190.31148512 Ry
     estimated scf accuracy    <       0.00000043 Ry

     iteration # 10     ecut=    50.00 Ry     beta= 0.70
     Davidson diagonalization with overlap
     ethr =  2.33E-10,  avg # of iterations =  3.0

     negative rho (up, down):  1.011E-01 0.000E+00

     total cpu time spent up to now is       62.6 secs

     total energy              =    -190.31148519 Ry
     estimated scf accuracy    <          2.0E-09 Ry

     iteration # 11     ecut=    50.00 Ry     beta= 0.70
     Davidson diagonalization with overlap
     ethr =  8.02E-12,  avg # of iterations =  4.2

     negative rho (up, down):  1.011E-01 0.000E+00

     total cpu time spent up to now is       69.1 secs

     total energy              =    -190.31148518 Ry
     estimated scf accuracy    <       0.00000004 Ry

     iteration # 12     ecut=    50.00 Ry     beta= 0.70
     Davidson diagonalization with overlap
     ethr =  8.02E-12,  avg # of iterations =  3.8

     negative rho (up, down):  1.011E-01 0.000E+00

     total cpu time spent up to now is       74.9 secs

     total energy              =    -190.31148519 Ry
     estimated scf accuracy    <          4.6E-10 Ry

     iteration # 13     ecut=    50.00 Ry     beta= 0.70
     Davidson diagonalization with overlap
     ethr =  1.84E-12,  avg # of iterations =  2.3

     negative rho (up, down):  1.011E-01 0.000E+00

     total cpu time spent up to now is       79.6 secs

     total energy              =    -190.31148519 Ry
     estimated scf accuracy    <          1.7E-11 Ry

     iteration # 14     ecut=    50.00 Ry     beta= 0.70
     Davidson diagonalization with overlap
     ethr =  1.00E-13,  avg # of iterations =  3.3

     negative rho (up, down):  1.011E-01 0.000E+00

     total cpu time spent up to now is       84.7 secs

     total energy              =    -190.31148519 Ry
     estimated scf accuracy    <          1.5E-11 Ry

     iteration # 15     ecut=    50.00 Ry     beta= 0.70
     Davidson diagonalization with overlap
     ethr =  1.00E-13,  avg # of iterations =  2.0

     negative rho (up, down):  1.011E-01 0.000E+00

     total cpu time spent up to now is       88.9 secs

     total energy              =    -190.31148519 Ry
     estimated scf accuracy    <          4.6E-13 Ry

     iteration # 16     ecut=    50.00 Ry     beta= 0.70
     Davidson diagonalization with overlap
     ethr =  1.00E-13,  avg # of iterations =  1.0

     negative rho (up, down):  1.011E-01 0.000E+00

     total cpu time spent up to now is       92.7 secs

     total energy              =    -190.31148519 Ry
     estimated scf accuracy    <          4.1E-13 Ry

     iteration # 17     ecut=    50.00 Ry     beta= 0.70
     Davidson diagonalization with overlap
     ethr =  1.00E-13,  avg # of iterations =  1.0

     negative rho (up, down):  1.011E-01 0.000E+00

     total cpu time spent up to now is       96.9 secs

     total energy              =    -190.31148519 Ry
     estimated scf accuracy    <          1.5E-13 Ry

     iteration # 18     ecut=    50.00 Ry     beta= 0.70
     Davidson diagonalization with overlap
     ethr =  1.00E-13,  avg # of iterations =  1.0

     negative rho (up, down):  1.011E-01 0.000E+00

     total cpu time spent up to now is      100.7 secs

     total energy              =    -190.31148519 Ry
     estimated scf accuracy    <          6.8E-14 Ry

     iteration # 19     ecut=    50.00 Ry     beta= 0.70
     Davidson diagonalization with overlap
     ethr =  1.00E-13,  avg # of iterations =  1.0

     negative rho (up, down):  1.011E-01 0.000E+00

     total cpu time spent up to now is      104.5 secs

     total energy              =    -190.31148519 Ry
     estimated scf accuracy    <          5.4E-15 Ry

     iteration # 20     ecut=    50.00 Ry     beta= 0.70
     Davidson diagonalization with overlap
     ethr =  1.00E-13,  avg # of iterations =  1.0

     negative rho (up, down):  1.011E-01 0.000E+00

     total cpu time spent up to now is      108.3 secs

     total energy              =    -190.31148519 Ry
     estimated scf accuracy    <          1.8E-15 Ry

     iteration # 21     ecut=    50.00 Ry     beta= 0.70
     Davidson diagonalization with overlap
     ethr =  1.00E-13,  avg # of iterations =  1.0

     negative rho (up, down):  1.011E-01 0.000E+00

     total cpu time spent up to now is      112.1 secs

     total energy              =    -190.31148519 Ry
     estimated scf accuracy    <          6.6E-16 Ry

     iteration # 22     ecut=    50.00 Ry     beta= 0.70
     Davidson diagonalization with overlap
     ethr =  1.00E-13,  avg # of iterations =  1.0

     negative rho (up, down):  1.011E-01 0.000E+00

     total cpu time spent up to now is      115.9 secs

     total energy              =    -190.31148519 Ry
     estimated scf accuracy    <          2.5E-16 Ry

     iteration # 23     ecut=    50.00 Ry     beta= 0.70
     Davidson diagonalization with overlap
     ethr =  1.00E-13,  avg # of iterations =  1.0

     negative rho (up, down):  1.011E-01 0.000E+00

     total cpu time spent up to now is      119.7 secs

     total energy              =    -190.31148519 Ry
     estimated scf accuracy    <          2.5E-16 Ry

     iteration # 24     ecut=    50.00 Ry     beta= 0.70
     Davidson diagonalization with overlap
     ethr =  1.00E-13,  avg # of iterations =  1.0

     negative rho (up, down):  1.011E-01 0.000E+00

     total cpu time spent up to now is      123.5 secs

     total energy              =    -190.31148519 Ry
     estimated scf accuracy    <          1.7E-16 Ry

     iteration # 25     ecut=    50.00 Ry     beta= 0.70
     Davidson diagonalization with overlap
     ethr =  1.00E-13,  avg # of iterations =  1.0

     negative rho (up, down):  1.011E-01 0.000E+00

     total cpu time spent up to now is      127.5 secs

     total energy              =    -190.31148519 Ry
     estimated scf accuracy    <          1.5E-16 Ry

     iteration # 26     ecut=    50.00 Ry     beta= 0.70
     Davidson diagonalization with overlap
     ethr =  1.00E-13,  avg # of iterations =  1.0

     negative rho (up, down):  1.011E-01 0.000E+00

     total cpu time spent up to now is      131.4 secs

     total energy              =    -190.31148519 Ry
     estimated scf accuracy    <          1.8E-17 Ry

     iteration # 27     ecut=    50.00 Ry     beta= 0.70
     Davidson diagonalization with overlap
     ethr =  1.00E-13,  avg # of iterations =  1.0

     negative rho (up, down):  1.011E-01 0.000E+00

     total cpu time spent up to now is      135.2 secs

     total energy              =    -190.31148519 Ry
     estimated scf accuracy    <          4.0E-18 Ry

     iteration # 28     ecut=    50.00 Ry     beta= 0.70
     Davidson diagonalization with overlap
     ethr =  1.00E-13,  avg # of iterations =  1.0

     negative rho (up, down):  1.011E-01 0.000E+00

     total cpu time spent up to now is      138.9 secs

     End of self-consistent calculation

     Number of k-points >= 100: set verbosity='high' to print the bands.

     the Fermi energy is    -5.9182 ev

!    total energy              =    -190.31148519 Ry
     estimated scf accuracy    <          1.9E-19 Ry
     smearing contrib. (-TS)   =       0.00000705 Ry
     internal energy E=F+TS    =    -190.31149224 Ry

     The total energy is F=E-TS. E is the sum of the following terms:
     one-electron contribution =   -1044.74925538 Ry
     hartree contribution      =     517.61800544 Ry
     xc contribution           =     -59.14415725 Ry
     ewald contribution        =     395.96391495 Ry

     convergence has been achieved in  28 iterations

     Writing all to output data dir /fastscratch/tsievers/QE_TMP_DIR/TaS2_bench_nprocs_48x48_20.save/

     init_run     :      2.57s CPU      2.87s WALL (       1 calls)
     electrons    :    131.19s CPU    136.57s WALL (       1 calls)

     Called by init_run:
     wfcinit      :      1.75s CPU      1.93s WALL (       1 calls)
     potinit      :      0.22s CPU      0.31s WALL (       1 calls)
     hinit0       :      0.47s CPU      0.47s WALL (       1 calls)

     Called by electrons:
     c_bands      :    109.97s CPU    112.76s WALL (      29 calls)
     sum_band     :     18.56s CPU     19.46s WALL (      29 calls)
     v_of_rho     :      0.43s CPU      0.46s WALL (      29 calls)
     newd         :      2.23s CPU      2.74s WALL (      29 calls)
     mix_rho      :      0.05s CPU      0.05s WALL (      29 calls)

     Called by c_bands:
     init_us_2    :      2.98s CPU      3.04s WALL (   12803 calls)
     init_us_2:cp :      2.95s CPU      3.01s WALL (   12803 calls)
     cegterg      :    102.94s CPU    104.99s WALL (    6293 calls)

     Called by *egterg:
     cdiaghg      :      7.63s CPU      7.77s WALL (   19842 calls)
     h_psi        :     68.87s CPU     70.37s WALL (   20276 calls)
     s_psi        :      8.48s CPU      8.68s WALL (   20276 calls)
     g_psi        :      0.38s CPU      0.38s WALL (   13766 calls)

     Called by h_psi:
     h_psi:calbec :      9.16s CPU      9.40s WALL (   20276 calls)
     vloc_psi     :     51.06s CPU     52.11s WALL (   20276 calls)
     add_vuspsi   :      8.40s CPU      8.61s WALL (   20276 calls)

     General routines
     calbec       :     12.72s CPU     13.06s WALL (   26569 calls)
     fft          :      0.41s CPU      0.42s WALL (     376 calls)
     ffts         :      0.12s CPU      0.12s WALL (      58 calls)
     fftw         :     56.57s CPU     57.81s WALL (  637121 calls)
     interpolate  :      0.13s CPU      0.13s WALL (      29 calls)

     Parallel routines

     PWSCF        :   2m14.54s CPU   5m33.01s WALL


   This run was terminated on:  17:40:18   7Feb2022            

=------------------------------------------------------------------------------=
   JOB DONE.
=------------------------------------------------------------------------------=
