Module for gcc 10.2:
(GNU C/C++/FORTRAN compilers v10.2.0) - loaded.
Module for OpenMPI 4.1.0-gcc10.2-infiniband loaded.

     Program PWSCF v.7.0 starts on 12Feb2022 at  9:51:24 

     This program is part of the open-source Quantum ESPRESSO suite
     for quantum simulation of materials; please cite
         "P. Giannozzi et al., J. Phys.:Condens. Matter 21 395502 (2009);
         "P. Giannozzi et al., J. Phys.:Condens. Matter 29 465901 (2017);
         "P. Giannozzi et al., J. Chem. Phys. 152 154105 (2020);
          URL http://www.quantum-espresso.org", 
     in publications or presentations arising from this work. More details at
     http://www.quantum-espresso.org/quote

     Parallel version (MPI), running on    20 processors

     MPI processes distributed on     2 nodes
     R & G space division:  proc/nbgrp/npool/nimage =      20
     58763 MiB available memory on the printing compute node when the environment starts

     Reading input from in_files/si_conv_kpoints_maxecutwfc_24.scf

     Current dimensions of program PWSCF are:
     Max number of different atomic species (ntypx) = 10
     Max number of k-points (npk) =  40000
     Max angular momentum in pseudopotentials (lmaxx) =  4

     Subspace diagonalization in iterative solution of the eigenvalue problem:
     a serial algorithm will be used


     Parallelization info
     --------------------
     sticks:   dense  smooth     PW     G-vecs:    dense   smooth      PW
     Min          36      36     11                  630      630     110
     Max          37      37     12                  632      632     113
     Sum         721     721    223                12627    12627    2229

     Using Slab Decomposition



     bravais-lattice index     =            2
     lattice parameter (alat)  =      10.2000  a.u.
     unit-cell volume          =     265.3020 (a.u.)^3
     number of atoms/cell      =            2
     number of atomic types    =            1
     number of electrons       =         8.00
     number of Kohn-Sham states=            4
     kinetic-energy cutoff     =      50.0000  Ry
     charge density cutoff     =     200.0000  Ry
     scf convergence threshold =      1.0E-12
     mixing beta               =       0.7000
     number of iterations used =            8  plain     mixing
     Exchange-correlation= PBE
                           (   1   4   3   4   0   0   0)

     celldm(1)=  10.200000  celldm(2)=   0.000000  celldm(3)=   0.000000
     celldm(4)=   0.000000  celldm(5)=   0.000000  celldm(6)=   0.000000

     crystal axes: (cart. coord. in units of alat)
               a(1) = (  -0.500000   0.000000   0.500000 )  
               a(2) = (   0.000000   0.500000   0.500000 )  
               a(3) = (  -0.500000   0.500000   0.000000 )  

     reciprocal axes: (cart. coord. in units 2 pi/alat)
               b(1) = ( -1.000000 -1.000000  1.000000 )  
               b(2) = (  1.000000  1.000000  1.000000 )  
               b(3) = ( -1.000000  1.000000 -1.000000 )  


     PseudoPot. # 1 for Si read from file:
     ./pseudos/Si_pbe_v0.4.1.nc.sr.upf
     MD5 check sum: 02fab3f35e82123ef5bf1cb05d5b1a5e
     Pseudo is Norm-conserving + core correction, Zval =  4.0
     Generated using ONCVPSP code by D. R. Hamann
     Using radial grid of 1510 points,  6 beta functions with: 
                l(1) =   0
                l(2) =   0
                l(3) =   1
                l(4) =   1
                l(5) =   2
                l(6) =   2

     atomic species   valence    mass     pseudopotential
        Si             4.00    28.08600     Si( 1.00)

     48 Sym. Ops., with inversion, found (24 have fractional translation)



   Cartesian axes

     site n.     atom                  positions (alat units)
         1           Si  tau(   1) = (   0.0000000   0.0000000   0.0000000  )
         2           Si  tau(   2) = (   0.2500000   0.2500000   0.2500000  )

     number of k points=   413

     Number of k-points >= 100: set verbosity='high' to print them.

     Dense  grid:    12627 G-vectors     FFT dimensions: (  36,  36,  36)

     Estimated max dynamical RAM per process >       3.64 MB

     Estimated total dynamical RAM >      72.81 MB

     Initial potential from superposition of free atoms

     starting charge       7.9988, renormalised to       8.0000
     Starting wfcs are    8 randomized atomic wfcs

     total cpu time spent up to now is        2.7 secs

     Self-consistent Calculation

     iteration #  1     ecut=    50.00 Ry     beta= 0.70
     Davidson diagonalization with overlap
     ethr =  1.00E-02,  avg # of iterations =  2.0

     Threshold (ethr) on eigenvalues was too large:
     Diagonalizing with lowered threshold

     Davidson diagonalization with overlap
     ethr =  5.86E-04,  avg # of iterations =  2.0

     total cpu time spent up to now is       11.9 secs

     total energy              =     -16.92148469 Ry
     estimated scf accuracy    <       0.05533496 Ry

     iteration #  2     ecut=    50.00 Ry     beta= 0.70
     Davidson diagonalization with overlap
     ethr =  6.92E-04,  avg # of iterations =  1.0

     total cpu time spent up to now is       15.3 secs

     total energy              =     -16.92319263 Ry
     estimated scf accuracy    <       0.00290175 Ry

     iteration #  3     ecut=    50.00 Ry     beta= 0.70
     Davidson diagonalization with overlap
     ethr =  3.63E-05,  avg # of iterations =  2.3

     total cpu time spent up to now is       20.3 secs

     total energy              =     -16.92385599 Ry
     estimated scf accuracy    <       0.00006584 Ry

     iteration #  4     ecut=    50.00 Ry     beta= 0.70
     Davidson diagonalization with overlap
     ethr =  8.23E-07,  avg # of iterations =  5.0

     total cpu time spent up to now is       27.7 secs

     total energy              =     -16.92393917 Ry
     estimated scf accuracy    <       0.00000026 Ry

     iteration #  5     ecut=    50.00 Ry     beta= 0.70
     Davidson diagonalization with overlap
     ethr =  3.24E-09,  avg # of iterations =  6.6

     total cpu time spent up to now is       37.1 secs

     total energy              =     -16.92394096 Ry
     estimated scf accuracy    <          9.9E-09 Ry

     iteration #  6     ecut=    50.00 Ry     beta= 0.70
     Davidson diagonalization with overlap
     ethr =  1.24E-10,  avg # of iterations =  3.4

     total cpu time spent up to now is       43.0 secs

     total energy              =     -16.92394097 Ry
     estimated scf accuracy    <          9.7E-10 Ry

     iteration #  7     ecut=    50.00 Ry     beta= 0.70
     Davidson diagonalization with overlap
     ethr =  1.21E-11,  avg # of iterations =  3.2

     total cpu time spent up to now is       48.7 secs

     total energy              =     -16.92394097 Ry
     estimated scf accuracy    <          1.7E-10 Ry

     iteration #  8     ecut=    50.00 Ry     beta= 0.70
     Davidson diagonalization with overlap
     ethr =  2.10E-12,  avg # of iterations =  2.4

     total cpu time spent up to now is       53.2 secs

     End of self-consistent calculation

     Number of k-points >= 100: set verbosity='high' to print the bands.

     highest occupied level (ev):     6.4228

!    total energy              =     -16.92394097 Ry
     estimated scf accuracy    <          1.6E-13 Ry

     The total energy is the sum of the following terms:
     one-electron contribution =       5.10087696 Ry
     hartree contribution      =       1.07923803 Ry
     xc contribution           =      -6.20429735 Ry
     ewald contribution        =     -16.89975861 Ry

     convergence has been achieved in   8 iterations

     Writing all to output data dir /fastscratch/tsievers/QE_TMP_DIR/silicon_conv_kpoints_24.save/

     init_run     :      1.68s CPU      2.57s WALL (       1 calls)
     electrons    :     32.78s CPU     50.56s WALL (       1 calls)

     Called by init_run:
     wfcinit      :      1.50s CPU      2.39s WALL (       1 calls)
     potinit      :      0.01s CPU      0.01s WALL (       1 calls)
     hinit0       :      0.15s CPU      0.15s WALL (       1 calls)

     Called by electrons:
     c_bands      :     29.64s CPU     45.86s WALL (       9 calls)
     sum_band     :      3.07s CPU      4.61s WALL (       9 calls)
     v_of_rho     :      0.04s CPU      0.05s WALL (       9 calls)
     mix_rho      :      0.02s CPU      0.02s WALL (       9 calls)

     Called by c_bands:
     init_us_2    :      0.21s CPU      0.32s WALL (    7847 calls)
     init_us_2:cp :      0.20s CPU      0.31s WALL (    7847 calls)
     cegterg      :     28.46s CPU     44.03s WALL (    3717 calls)

     Called by *egterg:
     cdiaghg      :      0.36s CPU      0.56s WALL (   14869 calls)
     h_psi        :     23.52s CPU     36.42s WALL (   15695 calls)
     g_psi        :      0.02s CPU      0.03s WALL (   11565 calls)

     Called by h_psi:
     h_psi:calbec :      3.30s CPU      5.12s WALL (   15695 calls)
     vloc_psi     :     19.91s CPU     30.83s WALL (   15695 calls)
     add_vuspsi   :      0.24s CPU      0.38s WALL (   15695 calls)

     General routines
     calbec       :      3.28s CPU      5.09s WALL (   15695 calls)
     fft          :      0.16s CPU      0.17s WALL (      91 calls)
     ffts         :      0.00s CPU      0.00s WALL (       9 calls)
     fftw         :     22.55s CPU     34.78s WALL (  121476 calls)

     Parallel routines

     PWSCF        :     38.46s CPU   1m 1.09s WALL


   This run was terminated on:   9:52:25  12Feb2022            

=------------------------------------------------------------------------------=
   JOB DONE.
=------------------------------------------------------------------------------=
