Module for gcc 10.2:
(GNU C/C++/FORTRAN compilers v10.2.0) - loaded.
Module for OpenMPI 4.1.0-gcc10.2-infiniband loaded.

     Program PWSCF v.7.0 starts on 12Feb2022 at  9:47:24 

     This program is part of the open-source Quantum ESPRESSO suite
     for quantum simulation of materials; please cite
         "P. Giannozzi et al., J. Phys.:Condens. Matter 21 395502 (2009);
         "P. Giannozzi et al., J. Phys.:Condens. Matter 29 465901 (2017);
         "P. Giannozzi et al., J. Chem. Phys. 152 154105 (2020);
          URL http://www.quantum-espresso.org", 
     in publications or presentations arising from this work. More details at
     http://www.quantum-espresso.org/quote

     Parallel version (MPI), running on    20 processors

     MPI processes distributed on     2 nodes
     R & G space division:  proc/nbgrp/npool/nimage =      20
     58875 MiB available memory on the printing compute node when the environment starts

     Reading input from in_files/si_conv_kpoints_maxecutwfc_14.scf

     Current dimensions of program PWSCF are:
     Max number of different atomic species (ntypx) = 10
     Max number of k-points (npk) =  40000
     Max angular momentum in pseudopotentials (lmaxx) =  4

     Subspace diagonalization in iterative solution of the eigenvalue problem:
     a serial algorithm will be used


     Parallelization info
     --------------------
     sticks:   dense  smooth     PW     G-vecs:    dense   smooth      PW
     Min          36      36     11                  630      630     106
     Max          37      37     12                  632      632     107
     Sum         721     721    223                12627    12627    2133

     Using Slab Decomposition



     bravais-lattice index     =            2
     lattice parameter (alat)  =      10.2000  a.u.
     unit-cell volume          =     265.3020 (a.u.)^3
     number of atoms/cell      =            2
     number of atomic types    =            1
     number of electrons       =         8.00
     number of Kohn-Sham states=            4
     kinetic-energy cutoff     =      50.0000  Ry
     charge density cutoff     =     200.0000  Ry
     scf convergence threshold =      1.0E-12
     mixing beta               =       0.7000
     number of iterations used =            8  plain     mixing
     Exchange-correlation= PBE
                           (   1   4   3   4   0   0   0)

     celldm(1)=  10.200000  celldm(2)=   0.000000  celldm(3)=   0.000000
     celldm(4)=   0.000000  celldm(5)=   0.000000  celldm(6)=   0.000000

     crystal axes: (cart. coord. in units of alat)
               a(1) = (  -0.500000   0.000000   0.500000 )  
               a(2) = (   0.000000   0.500000   0.500000 )  
               a(3) = (  -0.500000   0.500000   0.000000 )  

     reciprocal axes: (cart. coord. in units 2 pi/alat)
               b(1) = ( -1.000000 -1.000000  1.000000 )  
               b(2) = (  1.000000  1.000000  1.000000 )  
               b(3) = ( -1.000000  1.000000 -1.000000 )  


     PseudoPot. # 1 for Si read from file:
     ./pseudos/Si_pbe_v0.4.1.nc.sr.upf
     MD5 check sum: 02fab3f35e82123ef5bf1cb05d5b1a5e
     Pseudo is Norm-conserving + core correction, Zval =  4.0
     Generated using ONCVPSP code by D. R. Hamann
     Using radial grid of 1510 points,  6 beta functions with: 
                l(1) =   0
                l(2) =   0
                l(3) =   1
                l(4) =   1
                l(5) =   2
                l(6) =   2

     atomic species   valence    mass     pseudopotential
        Si             4.00    28.08600     Si( 1.00)

     48 Sym. Ops., with inversion, found (24 have fractional translation)



   Cartesian axes

     site n.     atom                  positions (alat units)
         1           Si  tau(   1) = (   0.0000000   0.0000000   0.0000000  )
         2           Si  tau(   2) = (   0.2500000   0.2500000   0.2500000  )

     number of k points=   104

     Number of k-points >= 100: set verbosity='high' to print them.

     Dense  grid:    12627 G-vectors     FFT dimensions: (  36,  36,  36)

     Estimated max dynamical RAM per process >       2.15 MB

     Estimated total dynamical RAM >      43.01 MB

     Initial potential from superposition of free atoms

     starting charge       7.9988, renormalised to       8.0000
     Starting wfcs are    8 randomized atomic wfcs

     total cpu time spent up to now is        0.9 secs

     Self-consistent Calculation

     iteration #  1     ecut=    50.00 Ry     beta= 0.70
     Davidson diagonalization with overlap
     ethr =  1.00E-02,  avg # of iterations =  2.0

     Threshold (ethr) on eigenvalues was too large:
     Diagonalizing with lowered threshold

     Davidson diagonalization with overlap
     ethr =  5.87E-04,  avg # of iterations =  2.0

     total cpu time spent up to now is        3.2 secs

     total energy              =     -16.92148700 Ry
     estimated scf accuracy    <       0.05535695 Ry

     iteration #  2     ecut=    50.00 Ry     beta= 0.70
     Davidson diagonalization with overlap
     ethr =  6.92E-04,  avg # of iterations =  1.0

     total cpu time spent up to now is        4.1 secs

     total energy              =     -16.92319301 Ry
     estimated scf accuracy    <       0.00289902 Ry

     iteration #  3     ecut=    50.00 Ry     beta= 0.70
     Davidson diagonalization with overlap
     ethr =  3.62E-05,  avg # of iterations =  2.3

     total cpu time spent up to now is        5.3 secs

     total energy              =     -16.92385189 Ry
     estimated scf accuracy    <       0.00006516 Ry

     iteration #  4     ecut=    50.00 Ry     beta= 0.70
     Davidson diagonalization with overlap
     ethr =  8.14E-07,  avg # of iterations =  5.0

     total cpu time spent up to now is        7.2 secs

     total energy              =     -16.92393697 Ry
     estimated scf accuracy    <       0.00000022 Ry

     iteration #  5     ecut=    50.00 Ry     beta= 0.70
     Davidson diagonalization with overlap
     ethr =  2.80E-09,  avg # of iterations =  6.6

     total cpu time spent up to now is        9.6 secs

     total energy              =     -16.92393850 Ry
     estimated scf accuracy    <          3.8E-09 Ry

     iteration #  6     ecut=    50.00 Ry     beta= 0.70
     Davidson diagonalization with overlap
     ethr =  4.74E-11,  avg # of iterations =  4.6

     total cpu time spent up to now is       11.3 secs

     total energy              =     -16.92393851 Ry
     estimated scf accuracy    <          1.1E-10 Ry

     iteration #  7     ecut=    50.00 Ry     beta= 0.70
     Davidson diagonalization with overlap
     ethr =  1.32E-12,  avg # of iterations =  4.4

     total cpu time spent up to now is       13.0 secs

     total energy              =     -16.92393851 Ry
     estimated scf accuracy    <          4.4E-11 Ry

     iteration #  8     ecut=    50.00 Ry     beta= 0.70
     Davidson diagonalization with overlap
     ethr =  5.48E-13,  avg # of iterations =  2.0

     total cpu time spent up to now is       14.2 secs

     End of self-consistent calculation

     Number of k-points >= 100: set verbosity='high' to print the bands.

     highest occupied level (ev):     6.4229

!    total energy              =     -16.92393851 Ry
     estimated scf accuracy    <          2.5E-13 Ry

     The total energy is the sum of the following terms:
     one-electron contribution =       5.10087153 Ry
     hartree contribution      =       1.07925216 Ry
     xc contribution           =      -6.20430358 Ry
     ewald contribution        =     -16.89975861 Ry

     convergence has been achieved in   8 iterations

     Writing all to output data dir /fastscratch/tsievers/QE_TMP_DIR/silicon_conv_kpoints_14.save/

     init_run     :      0.54s CPU      0.78s WALL (       1 calls)
     electrons    :      8.63s CPU     13.32s WALL (       1 calls)

     Called by init_run:
     wfcinit      :      0.37s CPU      0.59s WALL (       1 calls)
     potinit      :      0.01s CPU      0.01s WALL (       1 calls)
     hinit0       :      0.14s CPU      0.15s WALL (       1 calls)

     Called by electrons:
     c_bands      :      7.80s CPU     12.02s WALL (       9 calls)
     sum_band     :      0.79s CPU      1.15s WALL (       9 calls)
     v_of_rho     :      0.04s CPU      0.05s WALL (       9 calls)
     mix_rho      :      0.01s CPU      0.02s WALL (       9 calls)

     Called by c_bands:
     init_us_2    :      0.05s CPU      0.08s WALL (    1976 calls)
     init_us_2:cp :      0.05s CPU      0.07s WALL (    1976 calls)
     cegterg      :      7.49s CPU     11.56s WALL (     936 calls)

     Called by *egterg:
     cdiaghg      :      0.10s CPU      0.15s WALL (    3939 calls)
     h_psi        :      6.14s CPU      9.51s WALL (    4147 calls)
     g_psi        :      0.01s CPU      0.01s WALL (    3107 calls)

     Called by h_psi:
     h_psi:calbec :      0.87s CPU      1.34s WALL (    4147 calls)
     vloc_psi     :      5.20s CPU      8.04s WALL (    4147 calls)
     add_vuspsi   :      0.06s CPU      0.10s WALL (    4147 calls)

     General routines
     calbec       :      0.86s CPU      1.33s WALL (    4147 calls)
     fft          :      0.15s CPU      0.17s WALL (      91 calls)
     ffts         :      0.00s CPU      0.00s WALL (       9 calls)
     fftw         :      5.87s CPU      9.02s WALL (   31648 calls)

     Parallel routines

     PWSCF        :     10.29s CPU     16.58s WALL


   This run was terminated on:   9:47:40  12Feb2022            

=------------------------------------------------------------------------------=
   JOB DONE.
=------------------------------------------------------------------------------=
