Module for gcc 10.2:
(GNU C/C++/FORTRAN compilers v10.2.0) - loaded.
Module for OpenMPI 4.1.0-gcc10.2-infiniband loaded.

     Program PWSCF v.7.0 starts on  3Feb2022 at 17:47:56 

     This program is part of the open-source Quantum ESPRESSO suite
     for quantum simulation of materials; please cite
         "P. Giannozzi et al., J. Phys.:Condens. Matter 21 395502 (2009);
         "P. Giannozzi et al., J. Phys.:Condens. Matter 29 465901 (2017);
         "P. Giannozzi et al., J. Chem. Phys. 152 154105 (2020);
          URL http://www.quantum-espresso.org", 
     in publications or presentations arising from this work. More details at
     http://www.quantum-espresso.org/quote

     Parallel version (MPI), running on    20 processors

     MPI processes distributed on     1 nodes
     R & G space division:  proc/nbgrp/npool/nimage =      20
     62432 MiB available memory on the printing compute node when the environment starts

     Reading input from in_files/kp_14.scf

     Current dimensions of program PWSCF are:
     Max number of different atomic species (ntypx) = 10
     Max number of k-points (npk) =  40000
     Max angular momentum in pseudopotentials (lmaxx) =  4

     Subspace diagonalization in iterative solution of the eigenvalue problem:
     a serial algorithm will be used


     Parallelization info
     --------------------
     sticks:   dense  smooth     PW     G-vecs:    dense   smooth      PW
     Min          42      42     12                  817      817     134
     Max          43      43     13                  820      820     139
     Sum         847     847    253                16361    16361    2733

     Using Slab Decomposition



     bravais-lattice index     =            2
     lattice parameter (alat)  =      10.2000  a.u.
     unit-cell volume          =     265.3020 (a.u.)^3
     number of atoms/cell      =            2
     number of atomic types    =            1
     number of electrons       =         8.00
     number of Kohn-Sham states=            4
     kinetic-energy cutoff     =      59.0000  Ry
     charge density cutoff     =     236.0000  Ry
     scf convergence threshold =      1.0E-12
     mixing beta               =       0.7000
     number of iterations used =            8  plain     mixing
     Exchange-correlation= PBE
                           (   1   4   3   4   0   0   0)

     celldm(1)=  10.200000  celldm(2)=   0.000000  celldm(3)=   0.000000
     celldm(4)=   0.000000  celldm(5)=   0.000000  celldm(6)=   0.000000

     crystal axes: (cart. coord. in units of alat)
               a(1) = (  -0.500000   0.000000   0.500000 )  
               a(2) = (   0.000000   0.500000   0.500000 )  
               a(3) = (  -0.500000   0.500000   0.000000 )  

     reciprocal axes: (cart. coord. in units 2 pi/alat)
               b(1) = ( -1.000000 -1.000000  1.000000 )  
               b(2) = (  1.000000  1.000000  1.000000 )  
               b(3) = ( -1.000000  1.000000 -1.000000 )  


     PseudoPot. # 1 for Si read from file:
     ./pseudos/Si_pbe_v0.4.1.nc.sr.upf
     MD5 check sum: 02fab3f35e82123ef5bf1cb05d5b1a5e
     Pseudo is Norm-conserving + core correction, Zval =  4.0
     Generated using ONCVPSP code by D. R. Hamann
     Using radial grid of 1510 points,  6 beta functions with: 
                l(1) =   0
                l(2) =   0
                l(3) =   1
                l(4) =   1
                l(5) =   2
                l(6) =   2

     atomic species   valence    mass     pseudopotential
        Si             4.00    28.08600     Si( 1.00)

     48 Sym. Ops., with inversion, found (24 have fractional translation)



   Cartesian axes

     site n.     atom                  positions (alat units)
         1           Si  tau(   1) = (   0.0000000   0.0000000   0.0000000  )
         2           Si  tau(   2) = (   0.2500000   0.2500000   0.2500000  )

     number of k points=   104

     Number of k-points >= 100: set verbosity='high' to print them.

     Dense  grid:    16361 G-vectors     FFT dimensions: (  36,  36,  36)

     Estimated max dynamical RAM per process >       2.48 MB

     Estimated total dynamical RAM >      49.68 MB

     Initial potential from superposition of free atoms

     starting charge       7.9988, renormalised to       8.0000
     Starting wfcs are    8 randomized atomic wfcs

     total cpu time spent up to now is        0.6 secs

     Self-consistent Calculation

     iteration #  1     ecut=    59.00 Ry     beta= 0.70
     Davidson diagonalization with overlap
     ethr =  1.00E-02,  avg # of iterations =  2.0

     Threshold (ethr) on eigenvalues was too large:
     Diagonalizing with lowered threshold

     Davidson diagonalization with overlap
     ethr =  5.86E-04,  avg # of iterations =  2.0

     total cpu time spent up to now is        1.1 secs

     total energy              =     -16.92148343 Ry
     estimated scf accuracy    <       0.05534182 Ry

     iteration #  2     ecut=    59.00 Ry     beta= 0.70
     Davidson diagonalization with overlap
     ethr =  6.92E-04,  avg # of iterations =  1.0

     total cpu time spent up to now is        1.3 secs

     total energy              =     -16.92319232 Ry
     estimated scf accuracy    <       0.00290699 Ry

     iteration #  3     ecut=    59.00 Ry     beta= 0.70
     Davidson diagonalization with overlap
     ethr =  3.63E-05,  avg # of iterations =  2.4

     total cpu time spent up to now is        1.5 secs

     total energy              =     -16.92386407 Ry
     estimated scf accuracy    <       0.00006732 Ry

     iteration #  4     ecut=    59.00 Ry     beta= 0.70
     Davidson diagonalization with overlap
     ethr =  8.42E-07,  avg # of iterations =  4.8

     total cpu time spent up to now is        1.9 secs

     total energy              =     -16.92394649 Ry
     estimated scf accuracy    <       0.00000029 Ry

     iteration #  5     ecut=    59.00 Ry     beta= 0.70
     Davidson diagonalization with overlap
     ethr =  3.66E-09,  avg # of iterations =  6.6

     total cpu time spent up to now is        2.3 secs

     total energy              =     -16.92394822 Ry
     estimated scf accuracy    <       0.00000002 Ry

     iteration #  6     ecut=    59.00 Ry     beta= 0.70
     Davidson diagonalization with overlap
     ethr =  2.17E-10,  avg # of iterations =  3.1

     total cpu time spent up to now is        2.6 secs

     total energy              =     -16.92394823 Ry
     estimated scf accuracy    <          1.6E-09 Ry

     iteration #  7     ecut=    59.00 Ry     beta= 0.70
     Davidson diagonalization with overlap
     ethr =  1.96E-11,  avg # of iterations =  3.2

     total cpu time spent up to now is        2.9 secs

     total energy              =     -16.92394823 Ry
     estimated scf accuracy    <          2.2E-10 Ry

     iteration #  8     ecut=    59.00 Ry     beta= 0.70
     Davidson diagonalization with overlap
     ethr =  2.76E-12,  avg # of iterations =  2.6

     total cpu time spent up to now is        3.1 secs

     End of self-consistent calculation

     Number of k-points >= 100: set verbosity='high' to print the bands.

     highest occupied level (ev):     6.4228

!    total energy              =     -16.92394823 Ry
     estimated scf accuracy    <          2.3E-13 Ry

     The total energy is the sum of the following terms:
     one-electron contribution =       5.10086251 Ry
     hartree contribution      =       1.07925363 Ry
     xc contribution           =      -6.20430580 Ry
     ewald contribution        =     -16.89975857 Ry

     convergence has been achieved in   8 iterations

     Forces acting on atoms (cartesian axes, Ry/au):

     atom    1 type  1   force =    -0.00000000   -0.00000000   -0.00000000
     atom    2 type  1   force =     0.00000000    0.00000000    0.00000000

     Total force =     0.000000     Total SCF correction =     0.000000


     Computing stress (Cartesian axis) and pressure

          total   stress  (Ry/bohr**3)                   (kbar)     P=       37.83
   0.00025714  -0.00000000   0.00000000           37.83       -0.00        0.00
  -0.00000000   0.00025714  -0.00000000           -0.00       37.83       -0.00
   0.00000000  -0.00000000   0.00025714            0.00       -0.00       37.83


     Writing all to output data dir /fastscratch/tsievers/QE_TMP_DIR/silicon.save/

     init_run     :      0.28s CPU      0.31s WALL (       1 calls)
     electrons    :      2.35s CPU      2.54s WALL (       1 calls)
     forces       :      0.05s CPU      0.05s WALL (       1 calls)
     stress       :      0.12s CPU      0.12s WALL (       1 calls)

     Called by init_run:
     wfcinit      :      0.13s CPU      0.14s WALL (       1 calls)
     potinit      :      0.01s CPU      0.01s WALL (       1 calls)
     hinit0       :      0.15s CPU      0.15s WALL (       1 calls)

     Called by electrons:
     c_bands      :      2.08s CPU      2.24s WALL (       9 calls)
     sum_band     :      0.25s CPU      0.27s WALL (       9 calls)
     v_of_rho     :      0.02s CPU      0.02s WALL (       9 calls)
     mix_rho      :      0.00s CPU      0.00s WALL (       9 calls)

     Called by c_bands:
     init_us_2    :      0.10s CPU      0.11s WALL (    2184 calls)
     init_us_2:cp :      0.10s CPU      0.10s WALL (    2184 calls)
     cegterg      :      1.88s CPU      2.02s WALL (     936 calls)

     Called by *egterg:
     cdiaghg      :      0.13s CPU      0.14s WALL (    3710 calls)
     h_psi        :      1.63s CPU      1.75s WALL (    3918 calls)
     g_psi        :      0.01s CPU      0.01s WALL (    2878 calls)

     Called by h_psi:
     h_psi:calbec :      0.15s CPU      0.16s WALL (    3918 calls)
     vloc_psi     :      1.35s CPU      1.45s WALL (    3918 calls)
     add_vuspsi   :      0.10s CPU      0.11s WALL (    3918 calls)

     General routines
     calbec       :      0.17s CPU      0.18s WALL (    4438 calls)
     fft          :      0.14s CPU      0.14s WALL (     115 calls)
     ffts         :      0.00s CPU      0.00s WALL (       9 calls)
     fftw         :      1.43s CPU      1.54s WALL (   30374 calls)

     Parallel routines

     PWSCF        :      2.94s CPU      4.34s WALL


   This run was terminated on:  17:48: 1   3Feb2022            

=------------------------------------------------------------------------------=
   JOB DONE.
=------------------------------------------------------------------------------=
