Module for gcc 10.2:
(GNU C/C++/FORTRAN compilers v10.2.0) - loaded.
Module for OpenMPI 4.1.0-gcc10.2-infiniband loaded.

     Program PWSCF v.7.0 starts on  3Feb2022 at 17:47:56 

     This program is part of the open-source Quantum ESPRESSO suite
     for quantum simulation of materials; please cite
         "P. Giannozzi et al., J. Phys.:Condens. Matter 21 395502 (2009);
         "P. Giannozzi et al., J. Phys.:Condens. Matter 29 465901 (2017);
         "P. Giannozzi et al., J. Chem. Phys. 152 154105 (2020);
          URL http://www.quantum-espresso.org", 
     in publications or presentations arising from this work. More details at
     http://www.quantum-espresso.org/quote

     Parallel version (MPI), running on    20 processors

     MPI processes distributed on     1 nodes
     R & G space division:  proc/nbgrp/npool/nimage =      20
     62437 MiB available memory on the printing compute node when the environment starts

     Reading input from in_files/kp_4.scf

     Current dimensions of program PWSCF are:
     Max number of different atomic species (ntypx) = 10
     Max number of k-points (npk) =  40000
     Max angular momentum in pseudopotentials (lmaxx) =  4

     Subspace diagonalization in iterative solution of the eigenvalue problem:
     a serial algorithm will be used


     Parallelization info
     --------------------
     sticks:   dense  smooth     PW     G-vecs:    dense   smooth      PW
     Min          42      42     12                  817      817     132
     Max          43      43     13                  820      820     136
     Sum         847     847    253                16361    16361    2685

     Using Slab Decomposition



     bravais-lattice index     =            2
     lattice parameter (alat)  =      10.2000  a.u.
     unit-cell volume          =     265.3020 (a.u.)^3
     number of atoms/cell      =            2
     number of atomic types    =            1
     number of electrons       =         8.00
     number of Kohn-Sham states=            4
     kinetic-energy cutoff     =      59.0000  Ry
     charge density cutoff     =     236.0000  Ry
     scf convergence threshold =      1.0E-12
     mixing beta               =       0.7000
     number of iterations used =            8  plain     mixing
     Exchange-correlation= PBE
                           (   1   4   3   4   0   0   0)

     celldm(1)=  10.200000  celldm(2)=   0.000000  celldm(3)=   0.000000
     celldm(4)=   0.000000  celldm(5)=   0.000000  celldm(6)=   0.000000

     crystal axes: (cart. coord. in units of alat)
               a(1) = (  -0.500000   0.000000   0.500000 )  
               a(2) = (   0.000000   0.500000   0.500000 )  
               a(3) = (  -0.500000   0.500000   0.000000 )  

     reciprocal axes: (cart. coord. in units 2 pi/alat)
               b(1) = ( -1.000000 -1.000000  1.000000 )  
               b(2) = (  1.000000  1.000000  1.000000 )  
               b(3) = ( -1.000000  1.000000 -1.000000 )  


     PseudoPot. # 1 for Si read from file:
     ./pseudos/Si_pbe_v0.4.1.nc.sr.upf
     MD5 check sum: 02fab3f35e82123ef5bf1cb05d5b1a5e
     Pseudo is Norm-conserving + core correction, Zval =  4.0
     Generated using ONCVPSP code by D. R. Hamann
     Using radial grid of 1510 points,  6 beta functions with: 
                l(1) =   0
                l(2) =   0
                l(3) =   1
                l(4) =   1
                l(5) =   2
                l(6) =   2

     atomic species   valence    mass     pseudopotential
        Si             4.00    28.08600     Si( 1.00)

     48 Sym. Ops., with inversion, found (24 have fractional translation)



   Cartesian axes

     site n.     atom                  positions (alat units)
         1           Si  tau(   1) = (   0.0000000   0.0000000   0.0000000  )
         2           Si  tau(   2) = (   0.2500000   0.2500000   0.2500000  )

     number of k points=     8
                       cart. coord. in units 2pi/alat
        k(    1) = (   0.0000000   0.0000000   0.0000000), wk =   0.0312500
        k(    2) = (  -0.2500000   0.2500000  -0.2500000), wk =   0.2500000
        k(    3) = (   0.5000000  -0.5000000   0.5000000), wk =   0.1250000
        k(    4) = (   0.0000000   0.5000000   0.0000000), wk =   0.1875000
        k(    5) = (   0.7500000  -0.2500000   0.7500000), wk =   0.7500000
        k(    6) = (   0.5000000   0.0000000   0.5000000), wk =   0.3750000
        k(    7) = (   0.0000000  -1.0000000   0.0000000), wk =   0.0937500
        k(    8) = (  -0.5000000  -1.0000000   0.0000000), wk =   0.1875000

     Dense  grid:    16361 G-vectors     FFT dimensions: (  36,  36,  36)

     Estimated max dynamical RAM per process >       1.89 MB

     Estimated total dynamical RAM >      37.84 MB

     Initial potential from superposition of free atoms

     starting charge       7.9988, renormalised to       8.0000
     Starting wfcs are    8 randomized atomic wfcs

     total cpu time spent up to now is        0.3 secs

     Self-consistent Calculation

     iteration #  1     ecut=    59.00 Ry     beta= 0.70
     Davidson diagonalization with overlap
     ethr =  1.00E-02,  avg # of iterations =  2.0

     Threshold (ethr) on eigenvalues was too large:
     Diagonalizing with lowered threshold

     Davidson diagonalization with overlap
     ethr =  6.50E-04,  avg # of iterations =  1.9

     total cpu time spent up to now is        0.3 secs

     total energy              =     -16.90737675 Ry
     estimated scf accuracy    <       0.06099636 Ry

     iteration #  2     ecut=    59.00 Ry     beta= 0.70
     Davidson diagonalization with overlap
     ethr =  7.62E-04,  avg # of iterations =  1.0

     total cpu time spent up to now is        0.3 secs

     total energy              =     -16.90920344 Ry
     estimated scf accuracy    <       0.00322015 Ry

     iteration #  3     ecut=    59.00 Ry     beta= 0.70
     Davidson diagonalization with overlap
     ethr =  4.03E-05,  avg # of iterations =  2.2

     total cpu time spent up to now is        0.3 secs

     total energy              =     -16.90980671 Ry
     estimated scf accuracy    <       0.00006539 Ry

     iteration #  4     ecut=    59.00 Ry     beta= 0.70
     Davidson diagonalization with overlap
     ethr =  8.17E-07,  avg # of iterations =  4.4

     total cpu time spent up to now is        0.4 secs

     total energy              =     -16.90987031 Ry
     estimated scf accuracy    <       0.00000062 Ry

     iteration #  5     ecut=    59.00 Ry     beta= 0.70
     Davidson diagonalization with overlap
     ethr =  7.78E-09,  avg # of iterations =  6.0

     total cpu time spent up to now is        0.4 secs

     total energy              =     -16.90987233 Ry
     estimated scf accuracy    <       0.00000011 Ry

     iteration #  6     ecut=    59.00 Ry     beta= 0.70
     Davidson diagonalization with overlap
     ethr =  1.42E-09,  avg # of iterations =  2.1

     total cpu time spent up to now is        0.4 secs

     total energy              =     -16.90987235 Ry
     estimated scf accuracy    <          4.1E-09 Ry

     iteration #  7     ecut=    59.00 Ry     beta= 0.70
     Davidson diagonalization with overlap
     ethr =  5.14E-11,  avg # of iterations =  4.1

     total cpu time spent up to now is        0.5 secs

     total energy              =     -16.90987236 Ry
     estimated scf accuracy    <          8.9E-10 Ry

     iteration #  8     ecut=    59.00 Ry     beta= 0.70
     Davidson diagonalization with overlap
     ethr =  1.11E-11,  avg # of iterations =  2.2

     total cpu time spent up to now is        0.5 secs

     total energy              =     -16.90987236 Ry
     estimated scf accuracy    <          1.6E-11 Ry

     iteration #  9     ecut=    59.00 Ry     beta= 0.70
     Davidson diagonalization with overlap
     ethr =  1.97E-13,  avg # of iterations =  5.4

     total cpu time spent up to now is        0.5 secs

     total energy              =     -16.90987236 Ry
     estimated scf accuracy    <          1.6E-12 Ry

     iteration # 10     ecut=    59.00 Ry     beta= 0.70
     Davidson diagonalization with overlap
     ethr =  1.00E-13,  avg # of iterations =  1.1

     total cpu time spent up to now is        0.5 secs

     End of self-consistent calculation

          k = 0.0000 0.0000 0.0000 (  2085 PWs)   bands (ev):

    -5.6329   6.4672   6.4672   6.4672

          k =-0.2500 0.2500-0.2500 (  2027 PWs)   bands (ev):

    -4.8199   2.4940   5.6899   5.6899

          k = 0.5000-0.5000 0.5000 (  2036 PWs)   bands (ev):

    -3.2532  -0.6044   5.2453   5.2453

          k = 0.0000 0.5000 0.0000 (  2020 PWs)   bands (ev):

    -4.5336   2.9457   4.5317   4.5317

          k = 0.7500-0.2500 0.7500 (  2034 PWs)   bands (ev):

    -2.8659   0.0229   2.8584   4.2131

          k = 0.5000 0.0000 0.5000 (  2017 PWs)   bands (ev):

    -3.5533   0.9425   2.6281   5.1104

          k = 0.0000-1.0000 0.0000 (  2044 PWs)   bands (ev):

    -1.4202  -1.4202   3.5532   3.5532

          k =-0.5000-1.0000 0.0000 (  2048 PWs)   bands (ev):

    -1.2471  -1.2471   2.5201   2.5201

     highest occupied level (ev):     6.4672

!    total energy              =     -16.90987236 Ry
     estimated scf accuracy    <          9.2E-13 Ry

     The total energy is the sum of the following terms:
     one-electron contribution =       5.10171826 Ry
     hartree contribution      =       1.10348908 Ry
     xc contribution           =      -6.21532113 Ry
     ewald contribution        =     -16.89975857 Ry

     convergence has been achieved in  10 iterations

     Forces acting on atoms (cartesian axes, Ry/au):

     atom    1 type  1   force =     0.00000000    0.00000000    0.00000000
     atom    2 type  1   force =     0.00000000    0.00000000    0.00000000

     Total force =     0.000000     Total SCF correction =     0.000000


     Computing stress (Cartesian axis) and pressure

          total   stress  (Ry/bohr**3)                   (kbar)     P=       44.74
   0.00030414   0.00000000   0.00000000           44.74        0.00        0.00
   0.00000000   0.00030414   0.00000000            0.00       44.74        0.00
   0.00000000   0.00000000   0.00030414            0.00        0.00       44.74


     Writing all to output data dir /fastscratch/tsievers/QE_TMP_DIR/silicon.save/

     init_run     :      0.17s CPU      0.18s WALL (       1 calls)
     electrons    :      0.25s CPU      0.30s WALL (       1 calls)
     forces       :      0.02s CPU      0.02s WALL (       1 calls)
     stress       :      0.04s CPU      0.04s WALL (       1 calls)

     Called by init_run:
     wfcinit      :      0.01s CPU      0.01s WALL (       1 calls)
     potinit      :      0.01s CPU      0.01s WALL (       1 calls)
     hinit0       :      0.15s CPU      0.15s WALL (       1 calls)

     Called by electrons:
     c_bands      :      0.19s CPU      0.21s WALL (      11 calls)
     sum_band     :      0.03s CPU      0.04s WALL (      11 calls)
     v_of_rho     :      0.02s CPU      0.02s WALL (      11 calls)
     mix_rho      :      0.00s CPU      0.00s WALL (      11 calls)

     Called by c_bands:
     init_us_2    :      0.01s CPU      0.01s WALL (     200 calls)
     init_us_2:cp :      0.01s CPU      0.01s WALL (     200 calls)
     cegterg      :      0.17s CPU      0.19s WALL (      88 calls)

     Called by *egterg:
     cdiaghg      :      0.01s CPU      0.01s WALL (     340 calls)
     h_psi        :      0.15s CPU      0.16s WALL (     356 calls)
     g_psi        :      0.00s CPU      0.00s WALL (     260 calls)

     Called by h_psi:
     h_psi:calbec :      0.01s CPU      0.02s WALL (     356 calls)
     vloc_psi     :      0.12s CPU      0.13s WALL (     356 calls)
     add_vuspsi   :      0.01s CPU      0.01s WALL (     356 calls)

     General routines
     calbec       :      0.01s CPU      0.02s WALL (     396 calls)
     fft          :      0.14s CPU      0.14s WALL (     135 calls)
     ffts         :      0.00s CPU      0.00s WALL (      11 calls)
     fftw         :      0.13s CPU      0.14s WALL (    2768 calls)

     Parallel routines

     PWSCF        :      0.52s CPU      0.73s WALL


   This run was terminated on:  17:47:57   3Feb2022            

=------------------------------------------------------------------------------=
   JOB DONE.
=------------------------------------------------------------------------------=
