Module for gcc 10.2:
(GNU C/C++/FORTRAN compilers v10.2.0) - loaded.
Module for OpenMPI 4.1.0-gcc10.2-infiniband loaded.

     Program PWSCF v.7.0 starts on 11Feb2022 at 23:10:45 

     This program is part of the open-source Quantum ESPRESSO suite
     for quantum simulation of materials; please cite
         "P. Giannozzi et al., J. Phys.:Condens. Matter 21 395502 (2009);
         "P. Giannozzi et al., J. Phys.:Condens. Matter 29 465901 (2017);
         "P. Giannozzi et al., J. Chem. Phys. 152 154105 (2020);
          URL http://www.quantum-espresso.org", 
     in publications or presentations arising from this work. More details at
     http://www.quantum-espresso.org/quote

     Parallel version (MPI), running on    36 processors

     MPI processes distributed on     2 nodes
     R & G space division:  proc/nbgrp/npool/nimage =      36
     54878 MiB available memory on the printing compute node when the environment starts

     Reading input from in_files/TaS2_bench_36.scf

     Current dimensions of program PWSCF are:
     Max number of different atomic species (ntypx) = 10
     Max number of k-points (npk) =  40000
     Max angular momentum in pseudopotentials (lmaxx) =  4

     Subspace diagonalization in iterative solution of the eigenvalue problem:
     a serial algorithm will be used


     Parallelization info
     --------------------
     sticks:   dense  smooth     PW     G-vecs:    dense   smooth      PW
     Min          30      15      4                 3662     1291     202
     Max          32      16      5                 3675     1308     225
     Sum        1099     559    163               132031    46753    7647

     Using Slab Decomposition



     bravais-lattice index     =            4
     lattice parameter (alat)  =       6.3117  a.u.
     unit-cell volume          =     977.9382 (a.u.)^3
     number of atoms/cell      =            3
     number of atomic types    =            2
     number of electrons       =        25.00
     number of Kohn-Sham states=           17
     kinetic-energy cutoff     =      50.0000  Ry
     charge density cutoff     =     400.0000  Ry
     scf convergence threshold =      1.0E-18
     mixing beta               =       0.7000
     number of iterations used =            8  plain     mixing
     Exchange-correlation=  SLA  PW   PBX  PBC
                           (   1   4   3   4   0   0   0)

     celldm(1)=   6.311685  celldm(2)=   0.000000  celldm(3)=   4.491018
     celldm(4)=   0.000000  celldm(5)=   0.000000  celldm(6)=   0.000000

     crystal axes: (cart. coord. in units of alat)
               a(1) = (   1.000000   0.000000   0.000000 )  
               a(2) = (  -0.500000   0.866025   0.000000 )  
               a(3) = (   0.000000   0.000000   4.491018 )  

     reciprocal axes: (cart. coord. in units 2 pi/alat)
               b(1) = (  1.000000  0.577350 -0.000000 )  
               b(2) = (  0.000000  1.154701  0.000000 )  
               b(3) = (  0.000000 -0.000000  0.222667 )  


     PseudoPot. # 1 for Ta read from file:
     ./pseudos/Ta_pbe_v1.uspp.F.UPF
     MD5 check sum: f8bbe9446314a3b8ea5d9f3e3836c939
     Pseudo is Ultrasoft + core correction, Zval = 13.0
     Generated by new atomic code, or converted to UPF format
     Using radial grid of  921 points,  7 beta functions with: 
                l(1) =   0
                l(2) =   0
                l(3) =   1
                l(4) =   1
                l(5) =   2
                l(6) =   2
                l(7) =   3
     Q(r) pseudized with  6 coefficients,  rinner =    1.300   1.300   1.300
                                                       1.300   1.300   1.300
                                                       1.300

     PseudoPot. # 2 for S  read from file:
     ./pseudos/s_pbe_v1.4.uspp.F.UPF
     MD5 check sum: 88d86576ff6df21479756cfb9bdac1df
     Pseudo is Ultrasoft + core correction, Zval =  6.0
     Generated by new atomic code, or converted to UPF format
     Using radial grid of  907 points,  6 beta functions with: 
                l(1) =   0
                l(2) =   0
                l(3) =   1
                l(4) =   1
                l(5) =   2
                l(6) =   2
     Q(r) pseudized with  8 coefficients,  rinner =    1.300   1.300   1.300
                                                       1.300   1.300

     atomic species   valence    mass     pseudopotential
        Ta            13.00   180.95000     Ta( 1.00)
        S              6.00    32.06000     S ( 1.00)

     12 Sym. Ops. (no inversion) found



   Cartesian axes

     site n.     atom                  positions (alat units)
         1           S   tau(   1) = (  -0.0000000   0.5773503   0.4679075  )
         2           Ta  tau(   2) = (   0.0000000   0.0000000   0.0000000  )
         3           S   tau(   3) = (  -0.0000000   0.5773503  -0.4679075  )

     number of k points=   217  Marzari-Vanderbilt smearing, width (Ry)=  0.0020

     Number of k-points >= 100: set verbosity='high' to print them.

     Dense  grid:   132031 G-vectors     FFT dimensions: (  45,  45, 192)

     Smooth grid:    46753 G-vectors     FFT dimensions: (  30,  30, 128)

     Estimated max dynamical RAM per process >      37.57 MB

     Estimated total dynamical RAM >       1.32 GB
 ----2D----2D----2D----2D----2D----2D----2D----2D----2D----2D----2D----2D
  The code is running with the 2D cutoff
  Please refer to:
  Sohier, T., Calandra, M., & Mauri, F. (2017), 
  Density functional perturbation theory for gated two-dimensional heterostructures:
  Theoretical developments and application to flexural phonons in graphene.
  Physical Review B, 96(7), 75448. https://doi.org/10.1103/PhysRevB.96.075448
 ----2D----2D----2D----2D----2D----2D----2D----2D----2D----2D----2D----2D

     Initial potential from superposition of free atoms

     starting charge      24.9988, renormalised to      25.0000

     negative rho (up, down):  9.496E-02 0.000E+00
     Starting wfcs are   21 randomized atomic wfcs

     total cpu time spent up to now is       17.2 secs

     Self-consistent Calculation

     iteration #  1     ecut=    50.00 Ry     beta= 0.70
     Davidson diagonalization with overlap
     ethr =  1.00E-02,  avg # of iterations =  3.1

     Threshold (ethr) on eigenvalues was too large:
     Diagonalizing with lowered threshold

     Davidson diagonalization with overlap
     ethr =  5.45E-04,  avg # of iterations =  2.9

     negative rho (up, down):  9.870E-02 0.000E+00

     total cpu time spent up to now is       96.8 secs

     total energy              =    -190.25446220 Ry
     estimated scf accuracy    <       0.14557090 Ry

     iteration #  2     ecut=    50.00 Ry     beta= 0.70
     Davidson diagonalization with overlap
     ethr =  5.82E-04,  avg # of iterations =  2.1

     negative rho (up, down):  9.950E-02 0.000E+00

     total cpu time spent up to now is      139.6 secs

     total energy              =    -190.22254375 Ry
     estimated scf accuracy    <       0.38239165 Ry

     iteration #  3     ecut=    50.00 Ry     beta= 0.70
     Davidson diagonalization with overlap
     ethr =  5.82E-04,  avg # of iterations =  2.0

     negative rho (up, down):  1.002E-01 0.000E+00

     total cpu time spent up to now is      178.3 secs

     total energy              =    -190.30431790 Ry
     estimated scf accuracy    <       0.05091972 Ry

     iteration #  4     ecut=    50.00 Ry     beta= 0.70
     Davidson diagonalization with overlap
     ethr =  2.04E-04,  avg # of iterations =  2.0

     negative rho (up, down):  1.010E-01 0.000E+00

     total cpu time spent up to now is      212.6 secs

     total energy              =    -190.31090839 Ry
     estimated scf accuracy    <       0.00103466 Ry

     iteration #  5     ecut=    50.00 Ry     beta= 0.70
     Davidson diagonalization with overlap
     ethr =  4.14E-06,  avg # of iterations =  4.6

     negative rho (up, down):  1.010E-01 0.000E+00

     total cpu time spent up to now is      264.8 secs

     total energy              =    -190.31142677 Ry
     estimated scf accuracy    <       0.00061160 Ry

     iteration #  6     ecut=    50.00 Ry     beta= 0.70
     Davidson diagonalization with overlap
     ethr =  2.45E-06,  avg # of iterations =  2.0

     negative rho (up, down):  1.011E-01 0.000E+00

     total cpu time spent up to now is      300.0 secs

     total energy              =    -190.31146132 Ry
     estimated scf accuracy    <       0.00005235 Ry

     iteration #  7     ecut=    50.00 Ry     beta= 0.70
     Davidson diagonalization with overlap
     ethr =  2.09E-07,  avg # of iterations =  3.6

     negative rho (up, down):  1.011E-01 0.000E+00

     total cpu time spent up to now is      341.9 secs

     total energy              =    -190.31148267 Ry
     estimated scf accuracy    <       0.00000760 Ry

     iteration #  8     ecut=    50.00 Ry     beta= 0.70
     Davidson diagonalization with overlap
     ethr =  3.04E-08,  avg # of iterations =  2.7

     negative rho (up, down):  1.011E-01 0.000E+00

     total cpu time spent up to now is      382.2 secs

     total energy              =    -190.31148502 Ry
     estimated scf accuracy    <       0.00000008 Ry

     iteration #  9     ecut=    50.00 Ry     beta= 0.70
     Davidson diagonalization with overlap
     ethr =  3.39E-10,  avg # of iterations =  6.4

     negative rho (up, down):  1.011E-01 0.000E+00

     total cpu time spent up to now is      452.9 secs

     total energy              =    -190.31148512 Ry
     estimated scf accuracy    <       0.00000048 Ry

     iteration # 10     ecut=    50.00 Ry     beta= 0.70
     Davidson diagonalization with overlap
     ethr =  3.39E-10,  avg # of iterations =  3.0

     negative rho (up, down):  1.011E-01 0.000E+00

     total cpu time spent up to now is      494.1 secs

     total energy              =    -190.31148518 Ry
     estimated scf accuracy    <          4.1E-09 Ry

     iteration # 11     ecut=    50.00 Ry     beta= 0.70
     Davidson diagonalization with overlap
     ethr =  1.63E-11,  avg # of iterations =  4.0

     negative rho (up, down):  1.011E-01 0.000E+00

     total cpu time spent up to now is      544.4 secs

     total energy              =    -190.31148518 Ry
     estimated scf accuracy    <       0.00000004 Ry

     iteration # 12     ecut=    50.00 Ry     beta= 0.70
     Davidson diagonalization with overlap
     ethr =  1.63E-11,  avg # of iterations =  3.0

     negative rho (up, down):  1.011E-01 0.000E+00

     total cpu time spent up to now is      588.1 secs

     total energy              =    -190.31148519 Ry
     estimated scf accuracy    <          6.7E-10 Ry

     iteration # 13     ecut=    50.00 Ry     beta= 0.70
     Davidson diagonalization with overlap
     ethr =  2.67E-12,  avg # of iterations =  2.5

     negative rho (up, down):  1.011E-01 0.000E+00

     total cpu time spent up to now is      627.1 secs

     total energy              =    -190.31148519 Ry
     estimated scf accuracy    <          3.3E-11 Ry

     iteration # 14     ecut=    50.00 Ry     beta= 0.70
     Davidson diagonalization with overlap
     ethr =  1.33E-13,  avg # of iterations =  3.9

     negative rho (up, down):  1.011E-01 0.000E+00

     total cpu time spent up to now is      682.2 secs

     total energy              =    -190.31148519 Ry
     estimated scf accuracy    <          5.5E-11 Ry

     iteration # 15     ecut=    50.00 Ry     beta= 0.70
     Davidson diagonalization with overlap
     ethr =  1.33E-13,  avg # of iterations =  2.0

     negative rho (up, down):  1.011E-01 0.000E+00

     total cpu time spent up to now is      719.1 secs

     total energy              =    -190.31148519 Ry
     estimated scf accuracy    <          2.6E-12 Ry

     iteration # 16     ecut=    50.00 Ry     beta= 0.70
     Davidson diagonalization with overlap
     ethr =  1.00E-13,  avg # of iterations =  1.9

     negative rho (up, down):  1.011E-01 0.000E+00

     total cpu time spent up to now is      754.1 secs

     total energy              =    -190.31148519 Ry
     estimated scf accuracy    <          7.8E-13 Ry

     iteration # 17     ecut=    50.00 Ry     beta= 0.70
     Davidson diagonalization with overlap
     ethr =  1.00E-13,  avg # of iterations =  1.0

     negative rho (up, down):  1.011E-01 0.000E+00

     total cpu time spent up to now is      786.4 secs

     total energy              =    -190.31148519 Ry
     estimated scf accuracy    <          1.7E-13 Ry

     iteration # 18     ecut=    50.00 Ry     beta= 0.70
     Davidson diagonalization with overlap
     ethr =  1.00E-13,  avg # of iterations =  1.0

     negative rho (up, down):  1.011E-01 0.000E+00

     total cpu time spent up to now is      818.7 secs

     total energy              =    -190.31148519 Ry
     estimated scf accuracy    <          1.4E-13 Ry

     iteration # 19     ecut=    50.00 Ry     beta= 0.70
     Davidson diagonalization with overlap
     ethr =  1.00E-13,  avg # of iterations =  1.0

     negative rho (up, down):  1.011E-01 0.000E+00

     total cpu time spent up to now is      851.1 secs

     total energy              =    -190.31148519 Ry
     estimated scf accuracy    <          1.6E-14 Ry

     iteration # 20     ecut=    50.00 Ry     beta= 0.70
     Davidson diagonalization with overlap
     ethr =  1.00E-13,  avg # of iterations =  1.0

     negative rho (up, down):  1.011E-01 0.000E+00

     total cpu time spent up to now is      883.4 secs

     total energy              =    -190.31148519 Ry
     estimated scf accuracy    <          1.2E-15 Ry

     iteration # 21     ecut=    50.00 Ry     beta= 0.70
     Davidson diagonalization with overlap
     ethr =  1.00E-13,  avg # of iterations =  1.0

     negative rho (up, down):  1.011E-01 0.000E+00

     total cpu time spent up to now is      915.8 secs

     total energy              =    -190.31148519 Ry
     estimated scf accuracy    <          9.3E-16 Ry

     iteration # 22     ecut=    50.00 Ry     beta= 0.70
     Davidson diagonalization with overlap
     ethr =  1.00E-13,  avg # of iterations =  1.0

     negative rho (up, down):  1.011E-01 0.000E+00

     total cpu time spent up to now is      948.2 secs

     total energy              =    -190.31148519 Ry
     estimated scf accuracy    <          7.1E-16 Ry

     iteration # 23     ecut=    50.00 Ry     beta= 0.70
     Davidson diagonalization with overlap
     ethr =  1.00E-13,  avg # of iterations =  1.0

     negative rho (up, down):  1.011E-01 0.000E+00

     total cpu time spent up to now is      980.5 secs

     total energy              =    -190.31148519 Ry
     estimated scf accuracy    <          3.7E-16 Ry

     iteration # 24     ecut=    50.00 Ry     beta= 0.70
     Davidson diagonalization with overlap
     ethr =  1.00E-13,  avg # of iterations =  1.0

     negative rho (up, down):  1.011E-01 0.000E+00

     total cpu time spent up to now is     1012.9 secs

     total energy              =    -190.31148519 Ry
     estimated scf accuracy    <          9.8E-18 Ry

     iteration # 25     ecut=    50.00 Ry     beta= 0.70
     Davidson diagonalization with overlap
     ethr =  1.00E-13,  avg # of iterations =  1.0

     negative rho (up, down):  1.011E-01 0.000E+00

     total cpu time spent up to now is     1045.2 secs

     total energy              =    -190.31148519 Ry
     estimated scf accuracy    <          4.6E-18 Ry

     iteration # 26     ecut=    50.00 Ry     beta= 0.70
     Davidson diagonalization with overlap
     ethr =  1.00E-13,  avg # of iterations =  1.0

     negative rho (up, down):  1.011E-01 0.000E+00

     total cpu time spent up to now is     1077.6 secs

     total energy              =    -190.31148519 Ry
     estimated scf accuracy    <          2.4E-18 Ry

     iteration # 27     ecut=    50.00 Ry     beta= 0.70
     Davidson diagonalization with overlap
     ethr =  1.00E-13,  avg # of iterations =  1.0

     negative rho (up, down):  1.011E-01 0.000E+00

     total cpu time spent up to now is     1109.9 secs

     total energy              =    -190.31148519 Ry
     estimated scf accuracy    <          3.3E-18 Ry

     iteration # 28     ecut=    50.00 Ry     beta= 0.70
     Davidson diagonalization with overlap
     ethr =  1.00E-13,  avg # of iterations =  1.0

     negative rho (up, down):  1.011E-01 0.000E+00

     total cpu time spent up to now is     1142.2 secs

     total energy              =    -190.31148519 Ry
     estimated scf accuracy    <          2.3E-17 Ry

     iteration # 29     ecut=    50.00 Ry     beta= 0.70
     Davidson diagonalization with overlap
     ethr =  1.00E-13,  avg # of iterations =  1.0

     negative rho (up, down):  1.011E-01 0.000E+00

     total cpu time spent up to now is     1174.6 secs

     total energy              =    -190.31148519 Ry
     estimated scf accuracy    <          2.2E-18 Ry

     iteration # 30     ecut=    50.00 Ry     beta= 0.70
     Davidson diagonalization with overlap
     ethr =  1.00E-13,  avg # of iterations =  1.0

     negative rho (up, down):  1.011E-01 0.000E+00

     total cpu time spent up to now is     1207.0 secs

     total energy              =    -190.31148519 Ry
     estimated scf accuracy    <          6.4E-18 Ry

     iteration # 31     ecut=    50.00 Ry     beta= 0.70
     Davidson diagonalization with overlap
     ethr =  1.00E-13,  avg # of iterations =  1.0

     negative rho (up, down):  1.011E-01 0.000E+00

     total cpu time spent up to now is     1239.3 secs

     total energy              =    -190.31148519 Ry
     estimated scf accuracy    <          3.7E-18 Ry

     iteration # 32     ecut=    50.00 Ry     beta= 0.70
     Davidson diagonalization with overlap
     ethr =  1.00E-13,  avg # of iterations =  1.0

     negative rho (up, down):  1.011E-01 0.000E+00

     total cpu time spent up to now is     1271.6 secs

     End of self-consistent calculation

     Number of k-points >= 100: set verbosity='high' to print the bands.

     the Fermi energy is    -5.9182 ev

!    total energy              =    -190.31148519 Ry
     estimated scf accuracy    <          3.8E-19 Ry
     smearing contrib. (-TS)   =       0.00000705 Ry
     internal energy E=F+TS    =    -190.31149224 Ry

     The total energy is F=E-TS. E is the sum of the following terms:
     one-electron contribution =   -1044.74925536 Ry
     hartree contribution      =     517.61800542 Ry
     xc contribution           =     -59.14415725 Ry
     ewald contribution        =     395.96391495 Ry

     convergence has been achieved in  32 iterations

     Writing all to output data dir /fastscratch/tsievers/QE_TMP_DIR/TaS2_bench_nprocs_48x48_36.save/

     init_run     :     10.48s CPU     16.71s WALL (       1 calls)
     electrons    :    763.09s CPU   1255.35s WALL (       1 calls)

     Called by init_run:
     wfcinit      :      9.63s CPU     15.64s WALL (       1 calls)
     potinit      :      0.37s CPU      0.51s WALL (       1 calls)
     hinit0       :      0.39s CPU      0.43s WALL (       1 calls)

     Called by electrons:
     c_bands      :    632.02s CPU   1040.13s WALL (      33 calls)
     sum_band     :    127.17s CPU    208.79s WALL (      33 calls)
     v_of_rho     :      1.81s CPU      2.86s WALL (      33 calls)
     newd         :      1.56s CPU      1.69s WALL (      33 calls)
     mix_rho      :      0.48s CPU      0.90s WALL (      33 calls)

     Called by c_bands:
     init_us_2    :      1.45s CPU      2.10s WALL (   14539 calls)
     init_us_2:cp :      1.42s CPU      2.08s WALL (   14539 calls)
     cegterg      :    623.87s CPU   1020.65s WALL (    7161 calls)

     Called by *egterg:
     cdiaghg      :      6.64s CPU      9.05s WALL (   21643 calls)
     h_psi        :    593.67s CPU    980.38s WALL (   22077 calls)
     s_psi        :      4.08s CPU      5.90s WALL (   22077 calls)
     g_psi        :      0.18s CPU      0.25s WALL (   14699 calls)

     Called by h_psi:
     h_psi:calbec :     19.44s CPU     31.32s WALL (   22077 calls)
     vloc_psi     :    570.18s CPU    942.93s WALL (   22077 calls)
     add_vuspsi   :      3.89s CPU      5.91s WALL (   22077 calls)

     General routines
     calbec       :     25.94s CPU     41.81s WALL (   29238 calls)
     fft          :      2.46s CPU      3.97s WALL (     428 calls)
     ffts         :      0.22s CPU      0.30s WALL (      66 calls)
     fftw         :    685.05s CPU   1132.83s WALL (  711085 calls)
     interpolate  :      0.34s CPU      0.51s WALL (      33 calls)

     Parallel routines

     PWSCF        :  13m 7.13s CPU  21m51.34s WALL


   This run was terminated on:  23:32:36  11Feb2022            

=------------------------------------------------------------------------------=
   JOB DONE.
=------------------------------------------------------------------------------=
