Module for intel-oneAPI 2021.4 loaded.
 
:: initializing oneAPI environment ...
   3071203: BASH_VERSION = 4.4.20(1)-release
:: advisor -- latest
:: ccl -- latest
:: clck -- latest
:: compiler -- latest
:: dal -- latest
:: debugger -- latest
:: dev-utilities -- latest
:: dnnl -- latest
:: dpcpp-ct -- latest
:: dpl -- latest
:: inspector -- latest
:: intelpython -- latest
:: ipp -- latest
:: ippcp -- latest
:: ipp -- latest
:: itac -- latest
:: LPOT -- latest
:: mkl -- latest
:: modelzoo -- latest
:: mpi -- latest
:: pytorch -- latest
:: tbb -- latest
:: tensorflow -- latest
:: vpl -- latest
:: vtune -- latest
:: oneAPI environment initialized ::
 

     Program PWSCF v.7.0 starts on 27Jun2022 at 11:59:30 

     This program is part of the open-source Quantum ESPRESSO suite
     for quantum simulation of materials; please cite
         "P. Giannozzi et al., J. Phys.:Condens. Matter 21 395502 (2009);
         "P. Giannozzi et al., J. Phys.:Condens. Matter 29 465901 (2017);
         "P. Giannozzi et al., J. Chem. Phys. 152 154105 (2020);
          URL http://www.quantum-espresso.org", 
     in publications or presentations arising from this work. More details at
     http://www.quantum-espresso.org/quote

     Parallel version (MPI), running on    36 processors

     MPI processes distributed on     2 nodes
     R & G space division:  proc/nbgrp/npool/nimage =      36
     60172 MiB available memory on the printing compute node when the environment starts
 
     Reading input from in_files/silicon_ph_bench_nd_16_n_procs_36_1.scf

     Current dimensions of program PWSCF are:
     Max number of different atomic species (ntypx) = 10
     Max number of k-points (npk) =  40000
     Max angular momentum in pseudopotentials (lmaxx) =  4

     Subspace diagonalization in iterative solution of the eigenvalue problem:
     one sub-group per band group will be used
     scalapack distributed-memory algorithm (size of sub-group:  4*  4 procs)

 
     Parallelization info
     --------------------
     sticks:   dense  smooth     PW     G-vecs:    dense   smooth      PW
     Min          27      27      8                  578      578      95
     Max          28      28      9                  581      581      99
     Sum        1003    1003    301                20875    20875    3479
 
     Using Slab Decomposition
 


     bravais-lattice index     =            2
     lattice parameter (alat)  =      10.1899  a.u.
     unit-cell volume          =     264.5151 (a.u.)^3
     number of atoms/cell      =            2
     number of atomic types    =            1
     number of electrons       =         8.00
     number of Kohn-Sham states=            4
     kinetic-energy cutoff     =      70.0000  Ry
     charge density cutoff     =     280.0000  Ry
     scf convergence threshold =      1.0E-10
     mixing beta               =       0.7000
     number of iterations used =            8  plain     mixing
     Exchange-correlation= SLA  PW   NOGX NOGC
                           (   1   4   0   0   0   0   0)

     celldm(1)=  10.189905  celldm(2)=   0.000000  celldm(3)=   0.000000
     celldm(4)=   0.000000  celldm(5)=   0.000000  celldm(6)=   0.000000

     crystal axes: (cart. coord. in units of alat)
               a(1) = (  -0.500000   0.000000   0.500000 )  
               a(2) = (   0.000000   0.500000   0.500000 )  
               a(3) = (  -0.500000   0.500000   0.000000 )  

     reciprocal axes: (cart. coord. in units 2 pi/alat)
               b(1) = ( -1.000000 -1.000000  1.000000 )  
               b(2) = (  1.000000  1.000000  1.000000 )  
               b(3) = ( -1.000000  1.000000 -1.000000 )  


     PseudoPot. # 1 for Si read from file:
     ./pseudos/Si.nc.UPF
     MD5 check sum: 9e2d726316af3d4752eea8ab0afbb951
     Pseudo is Norm-conserving + core correction, Zval =  4.0
     Generated using ONCVPSP code by D. R. Hamann
     Using radial grid of 1510 points,  6 beta functions with: 
                l(1) =   0
                l(2) =   0
                l(3) =   1
                l(4) =   1
                l(5) =   2
                l(6) =   2

     atomic species   valence    mass     pseudopotential
        Si             4.00    28.08550     Si( 1.00)

     48 Sym. Ops., with inversion, found (24 have fractional translation)



   Cartesian axes

     site n.     atom                  positions (alat units)
         1           Si  tau(   1) = (   0.0000000   0.0000000   0.0000000  )
         2           Si  tau(   2) = (  -0.2500000   0.2500000   0.2500000  )

     number of k points=    28
                       cart. coord. in units 2pi/alat
        k(    1) = (  -0.0833333   0.0833333   0.0833333), wk =   0.0185185
        k(    2) = (  -0.2500000   0.2500000  -0.0833333), wk =   0.0555556
        k(    3) = (  -0.4166667   0.4166667  -0.2500000), wk =   0.0555556
        k(    4) = (   0.4166667  -0.4166667   0.5833333), wk =   0.0555556
        k(    5) = (   0.2500000  -0.2500000   0.4166667), wk =   0.0555556
        k(    6) = (   0.0833333  -0.0833333   0.2500000), wk =   0.0555556
        k(    7) = (  -0.0833333   0.4166667   0.0833333), wk =   0.0555556
        k(    8) = (  -0.2500000   0.5833333  -0.0833333), wk =   0.1111111
        k(    9) = (   0.5833333  -0.2500000   0.7500000), wk =   0.1111111
        k(   10) = (   0.4166667  -0.0833333   0.5833333), wk =   0.1111111
        k(   11) = (   0.2500000   0.0833333   0.4166667), wk =   0.1111111
        k(   12) = (  -0.0833333   0.7500000   0.0833333), wk =   0.0555556
        k(   13) = (   0.7500000  -0.0833333   0.9166667), wk =   0.1111111
        k(   14) = (   0.5833333   0.0833333   0.7500000), wk =   0.1111111
        k(   15) = (   0.4166667   0.2500000   0.5833333), wk =   0.1111111
        k(   16) = (  -0.0833333  -0.9166667   0.0833333), wk =   0.0555556
        k(   17) = (  -0.2500000  -0.7500000  -0.0833333), wk =   0.1111111
        k(   18) = (  -0.0833333  -0.5833333   0.0833333), wk =   0.0555556
        k(   19) = (  -0.2500000   0.2500000   0.2500000), wk =   0.0185185
        k(   20) = (  -0.4166667   0.4166667   0.0833333), wk =   0.0555556
        k(   21) = (   0.4166667  -0.4166667   0.9166667), wk =   0.0555556
        k(   22) = (   0.2500000  -0.2500000   0.7500000), wk =   0.0555556
        k(   23) = (  -0.2500000   0.5833333   0.2500000), wk =   0.0555556
        k(   24) = (   0.5833333  -0.2500000   1.0833333), wk =   0.1111111
        k(   25) = (   0.4166667  -0.0833333   0.9166667), wk =   0.1111111
        k(   26) = (  -0.2500000  -1.0833333   0.2500000), wk =   0.0555556
        k(   27) = (  -0.4166667   0.4166667   0.4166667), wk =   0.0185185
        k(   28) = (   0.4166667  -0.4166667   1.2500000), wk =   0.0555556

     Dense  grid:    20875 G-vectors     FFT dimensions: (  40,  40,  40)

     Estimated max dynamical RAM per process >       1.99 MB

     Estimated total dynamical RAM >      71.70 MB

     Initial potential from superposition of free atoms

     starting charge       7.9989, renormalised to       8.0000
     Starting wfcs are    8 randomized atomic wfcs

     total cpu time spent up to now is       15.5 secs

     Self-consistent Calculation

     iteration #  1     ecut=    70.00 Ry     beta= 0.70
     Davidson diagonalization with overlap
     ethr =  1.00E-02,  avg # of iterations =  2.0

     Threshold (ethr) on eigenvalues was too large:
     Diagonalizing with lowered threshold

     Davidson diagonalization with overlap
     ethr =  6.12E-04,  avg # of iterations =  2.0

     total cpu time spent up to now is       16.2 secs

     total energy              =     -17.04760996 Ry
     estimated scf accuracy    <       0.05798693 Ry

     iteration #  2     ecut=    70.00 Ry     beta= 0.70
     Davidson diagonalization with overlap
     ethr =  7.25E-04,  avg # of iterations =  1.0

     total cpu time spent up to now is       16.4 secs

     total energy              =     -17.04994518 Ry
     estimated scf accuracy    <       0.00249632 Ry

     iteration #  3     ecut=    70.00 Ry     beta= 0.70
     Davidson diagonalization with overlap
     ethr =  3.12E-05,  avg # of iterations =  3.1

     total cpu time spent up to now is       16.9 secs

     total energy              =     -17.05082797 Ry
     estimated scf accuracy    <       0.00009743 Ry

     iteration #  4     ecut=    70.00 Ry     beta= 0.70
     Davidson diagonalization with overlap
     ethr =  1.22E-06,  avg # of iterations =  4.2

     total cpu time spent up to now is       17.4 secs

     total energy              =     -17.05089793 Ry
     estimated scf accuracy    <       0.00000329 Ry

     iteration #  5     ecut=    70.00 Ry     beta= 0.70
     Davidson diagonalization with overlap
     ethr =  4.11E-08,  avg # of iterations =  4.4

     total cpu time spent up to now is       18.0 secs

     total energy              =     -17.05090098 Ry
     estimated scf accuracy    <       0.00000017 Ry

     iteration #  6     ecut=    70.00 Ry     beta= 0.70
     Davidson diagonalization with overlap
     ethr =  2.10E-09,  avg # of iterations =  3.7

     total cpu time spent up to now is       18.5 secs

     total energy              =     -17.05090106 Ry
     estimated scf accuracy    <       0.00000002 Ry

     iteration #  7     ecut=    70.00 Ry     beta= 0.70
     Davidson diagonalization with overlap
     ethr =  2.66E-10,  avg # of iterations =  2.5

     total cpu time spent up to now is       18.9 secs

     End of self-consistent calculation

          k =-0.0833 0.0833 0.0833 (  2667 PWs)   bands (ev):

    -5.7561   5.3866   6.1106   6.1106

          k =-0.2500 0.2500-0.0833 (  2621 PWs)   bands (ev):

    -5.2692   3.2787   4.8359   5.9020

          k =-0.4167 0.4167-0.2500 (  2618 PWs)   bands (ev):

    -4.1491   0.4558   4.3704   5.2525

          k = 0.4167-0.4167 0.5833 (  2604 PWs)   bands (ev):

    -3.4238  -0.7235   4.4440   4.8612

          k = 0.2500-0.2500 0.4167 (  2618 PWs)   bands (ev):

    -4.5725   1.3222   4.9163   4.9543

          k = 0.0833-0.0833 0.2500 (  2643 PWs)   bands (ev):

    -5.5104   4.3092   5.4447   5.6431

          k =-0.0833 0.4167 0.0833 (  2627 PWs)   bands (ev):

    -5.0231   3.1094   4.6844   4.6977

          k =-0.2500 0.5833-0.0833 (  2613 PWs)   bands (ev):

    -4.0918   1.2428   3.3199   4.3008

          k = 0.5833-0.2500 0.7500 (  2616 PWs)   bands (ev):

    -2.9383  -0.5645   2.7090   4.0652

          k = 0.4167-0.0833 0.5833 (  2617 PWs)   bands (ev):

    -3.6856   0.5301   2.6549   4.5685

          k = 0.2500 0.0833 0.4167 (  2624 PWs)   bands (ev):

    -4.7922   2.2460   4.0374   5.2604

          k =-0.0833 0.7500 0.0833 (  2617 PWs)   bands (ev):

    -3.3664   0.4197   3.2862   3.6484

          k = 0.7500-0.0833 0.9167 (  2608 PWs)   bands (ev):

    -2.1400  -0.9430   2.4039   3.2177

          k = 0.5833 0.0833 0.7500 (  2608 PWs)   bands (ev):

    -2.5099  -0.6178   1.9049   3.7798

          k = 0.4167 0.2500 0.5833 (  2622 PWs)   bands (ev):

    -3.5664  -0.1967   3.6417   4.6731

          k =-0.0833-0.9167 0.0833 (  2604 PWs)   bands (ev):

    -2.2384  -0.9535   3.0091   3.4291

          k =-0.2500-0.7500-0.0833 (  2615 PWs)   bands (ev):

    -3.1914   0.1893   2.7413   3.5675

          k =-0.0833-0.5833 0.0833 (  2620 PWs)   bands (ev):

    -4.3033   1.8032   3.8480   4.0788

          k =-0.2500 0.2500 0.2500 (  2632 PWs)   bands (ev):

    -5.0343   2.2731   5.4857   5.4857

          k =-0.4167 0.4167 0.0833 (  2620 PWs)   bands (ev):

    -4.3392   1.3431   3.2814   5.3166

          k = 0.4167-0.4167 0.9167 (  2613 PWs)   bands (ev):

    -3.1274  -0.1140   2.1362   4.5076

          k = 0.2500-0.2500 0.7500 (  2618 PWs)   bands (ev):

    -3.0761  -0.1941   2.6356   4.0115

          k =-0.2500 0.5833 0.2500 (  2613 PWs)   bands (ev):

    -3.9042   0.5133   3.7737   4.3933

          k = 0.5833-0.2500 1.0833 (  2619 PWs)   bands (ev):

    -2.8764  -0.2148   2.2381   3.5572

          k = 0.4167-0.0833 0.9167 (  2613 PWs)   bands (ev):

    -2.0244  -0.9506   2.0592   2.8637

          k =-0.2500-1.0833 0.2500 (  2605 PWs)   bands (ev):

    -2.2385  -0.8648   1.9290   3.8127

          k =-0.4167 0.4167 0.4167 (  2602 PWs)   bands (ev):

    -3.8074  -0.3119   5.0941   5.0941

          k = 0.4167-0.4167 1.2500 (  2605 PWs)   bands (ev):

    -3.1840  -0.6106   3.2018   4.6388

     highest occupied level (ev):     6.1106

!    total energy              =     -17.05090107 Ry
     estimated scf accuracy    <          9.1E-11 Ry

     The total energy is the sum of the following terms:
     one-electron contribution =       5.01080475 Ry
     hartree contribution      =       1.07710683 Ry
     xc contribution           =      -6.22231136 Ry
     ewald contribution        =     -16.91650128 Ry

     convergence has been achieved in   7 iterations

     Forces acting on atoms (cartesian axes, Ry/au):

     atom    1 type  1   force =    -0.00000000   -0.00000000    0.00000000
     atom    2 type  1   force =     0.00000000    0.00000000   -0.00000000

     Total force =     0.000000     Total SCF correction =     0.000000

     Writing all to output data dir /fastscratch/tsievers/QE_TMP_DIR/silicon_ph_bench_nd_16_n_procs_36_1.save/
 
     init_run     :      0.22s CPU      0.24s WALL (       1 calls)
     electrons    :      3.33s CPU      3.38s WALL (       1 calls)
     forces       :      0.01s CPU      0.01s WALL (       1 calls)

     Called by init_run:
     wfcinit      :      0.18s CPU      0.18s WALL (       1 calls)
     potinit      :      0.00s CPU      0.00s WALL (       1 calls)
     hinit0       :      0.02s CPU      0.05s WALL (       1 calls)

     Called by electrons:
     c_bands      :      3.07s CPU      3.10s WALL (       8 calls)
     sum_band     :      0.25s CPU      0.26s WALL (       8 calls)
     v_of_rho     :      0.00s CPU      0.01s WALL (       8 calls)
     mix_rho      :      0.00s CPU      0.00s WALL (       8 calls)

     Called by c_bands:
     init_us_2    :      0.02s CPU      0.02s WALL (     504 calls)
     init_us_2:cp :      0.02s CPU      0.02s WALL (     504 calls)
     cegterg      :      3.00s CPU      3.03s WALL (     224 calls)

     Called by *egterg:
     cdiaghg      :      0.99s CPU      0.99s WALL (     837 calls)
     h_psi        :      1.74s CPU      1.75s WALL (     893 calls)
     g_psi        :      0.00s CPU      0.00s WALL (     641 calls)

     Called by h_psi:
     h_psi:calbec :      0.04s CPU      0.04s WALL (     893 calls)
     vloc_psi     :      1.68s CPU      1.69s WALL (     893 calls)
     add_vuspsi   :      0.01s CPU      0.01s WALL (     893 calls)

     General routines
     calbec       :      0.04s CPU      0.04s WALL (    1005 calls)
     fft          :      0.02s CPU      0.05s WALL (      28 calls)
     ffts         :      0.00s CPU      0.00s WALL (       8 calls)
     fftw         :      1.88s CPU      1.90s WALL (    7030 calls)
 
     Parallel routines
 
     PWSCF        :     18.86s CPU     19.10s WALL

 
   This run was terminated on:  11:59:49  27Jun2022            

=------------------------------------------------------------------------------=
   JOB DONE.
=------------------------------------------------------------------------------=

     Program PHONON v.7.0 starts on 27Jun2022 at 11:59:53 

     This program is part of the open-source Quantum ESPRESSO suite
     for quantum simulation of materials; please cite
         "P. Giannozzi et al., J. Phys.:Condens. Matter 21 395502 (2009);
         "P. Giannozzi et al., J. Phys.:Condens. Matter 29 465901 (2017);
         "P. Giannozzi et al., J. Chem. Phys. 152 154105 (2020);
          URL http://www.quantum-espresso.org", 
     in publications or presentations arising from this work. More details at
     http://www.quantum-espresso.org/quote

     Parallel version (MPI), running on    36 processors

     MPI processes distributed on     2 nodes
     R & G space division:  proc/nbgrp/npool/nimage =      36
     60156 MiB available memory on the printing compute node when the environment starts
 
     Reading input from in_files/silicon_ph_bench_nd_16_n_procs_36_1.ph
      Title line not specified: using 'default'.

     Reading xml data from directory:

     /fastscratch/tsievers/QE_TMP_DIR/silicon_ph_bench_nd_16_n_procs_36_1.save/

     IMPORTANT: XC functional enforced from input :
     Exchange-correlation= PW
                           (   1   4   0   0   0   0   0)
     Any further DFT definition will be discarded
     Please, verify this is what you really want

 
     Parallelization info
     --------------------
     sticks:   dense  smooth     PW     G-vecs:    dense   smooth      PW
     Min          27      27      8                  578      578      95
     Max          28      28      9                  581      581      99
     Sum        1003    1003    301                20875    20875    3479
 
     Using Slab Decomposition
 
     Reading collected, re-writing distributed wavefunctions


     Dynamical matrices for ( 6, 6, 6)  uniform grid of q-points
     (  16 q-points):
       N         xq(1)         xq(2)         xq(3) 
       1   0.000000000   0.000000000   0.000000000
       2  -0.166666667   0.166666667  -0.166666667
       3  -0.333333333   0.333333333  -0.333333333
       4   0.500000000  -0.500000000   0.500000000
       5   0.000000000   0.333333333   0.000000000
       6  -0.166666667   0.500000000  -0.166666667
       7   0.666666667  -0.333333333   0.666666667
       8   0.500000000  -0.166666667   0.500000000
       9   0.333333333   0.000000000   0.333333333
      10   0.000000000   0.666666667   0.000000000
      11   0.833333333  -0.166666667   0.833333333
      12   0.666666667  -0.000000000   0.666666667
      13   0.000000000  -1.000000000   0.000000000
      14   0.666666667  -0.333333333   1.000000000
      15   0.500000000  -0.166666667   0.833333333
      16  -0.333333333  -1.000000000   0.000000000

     Calculation of q =    0.0000000   0.0000000   0.0000000

     default                                                                    

     bravais-lattice index     =            2
     lattice parameter (alat)  =      10.1899  a.u.
     unit-cell volume          =     264.5151 (a.u.)^3
     number of atoms/cell      =            2
     number of atomic types    =            1
     kinetic-energy cut-off    =      70.0000  Ry
     charge density cut-off    =     280.0000  Ry
     convergence threshold     =      1.0E-15
     beta                      =       0.7000
     number of iterations used =            4
     Exchange-correlation= PW
                           (   1   4   0   0   0   0   0)


     celldm(1)=   10.18990  celldm(2)=    0.00000  celldm(3)=    0.00000
     celldm(4)=    0.00000  celldm(5)=    0.00000  celldm(6)=    0.00000

     crystal axes: (cart. coord. in units of alat)
               a(1) = ( -0.5000  0.0000  0.5000 )  
               a(2) = (  0.0000  0.5000  0.5000 )  
               a(3) = ( -0.5000  0.5000  0.0000 )  

     reciprocal axes: (cart. coord. in units 2 pi/alat)
               b(1) = ( -1.0000 -1.0000  1.0000 )  
               b(2) = (  1.0000  1.0000  1.0000 )  
               b(3) = ( -1.0000  1.0000 -1.0000 )  


     Atoms inside the unit cell: 

     Cartesian axes

     site n.  atom      mass           positions (alat units)
        1     Si  28.0855   tau(    1) = (    0.00000    0.00000    0.00000  )
        2     Si  28.0855   tau(    2) = (   -0.25000    0.25000    0.25000  )

     Computing dynamical matrix for 
                    q = (   0.0000000   0.0000000   0.0000000 )
 
     49 Sym.Ops. (with q -> -q+G )


     G cutoff =  736.4420  (    581 G-vectors)     FFT grid: ( 40, 40, 40)
     number of k points=    28

     PseudoPot. # 1 for Si read from file:
     ./pseudos/Si.nc.UPF
     MD5 check sum: 9e2d726316af3d4752eea8ab0afbb951
     Pseudo is Norm-conserving + core correction, Zval =  4.0
     Generated using ONCVPSP code by D. R. Hamann
     Using radial grid of 1510 points,  6 beta functions with: 
                l(1) =   0
                l(2) =   0
                l(3) =   1
                l(4) =   1
                l(5) =   2
                l(6) =   2

     Mode symmetry, O_h (m-3m)  point group:


     Electric field:
     Dielectric constant
     Born effective charges in two ways 


     Atomic displacements:
     There are    2 irreducible representations

     Representation     1      3 modes -  To be done

     Representation     2      3 modes -  To be done



     Alpha used in Ewald sum =   2.8000
     PHONON       :      0.30s CPU      0.44s WALL


     Electric Fields Calculation

      iter #   1 total cpu time :     6.9 secs   av.it.:   6.5
      thresh= 1.000E-02 alpha_mix =  0.700 |ddv_scf|^2 =  3.551E-08

      iter #   2 total cpu time :    10.6 secs   av.it.:  12.2
      thresh= 1.884E-05 alpha_mix =  0.700 |ddv_scf|^2 =  1.522E-09

      iter #   3 total cpu time :    14.0 secs   av.it.:  12.1
      thresh= 3.901E-06 alpha_mix =  0.700 |ddv_scf|^2 =  1.715E-11

      iter #   4 total cpu time :    17.6 secs   av.it.:  12.4
      thresh= 4.142E-07 alpha_mix =  0.700 |ddv_scf|^2 =  1.018E-13

      iter #   5 total cpu time :    20.8 secs   av.it.:  11.4
      thresh= 3.190E-08 alpha_mix =  0.700 |ddv_scf|^2 =  3.739E-17

     End of electric fields calculation

          Dielectric constant in cartesian axis 

          (      13.312199356       0.000000000      -0.000000000 )
          (       0.000000000      13.312199356      -0.000000000 )
          (      -0.000000000      -0.000000000      13.312199356 )

          Effective charges (d Force / dE) in cartesian axis without acoustic sum rule applied (asr)

           atom      1   Si Mean Z*:       -0.00679
      Ex  (       -0.00679        0.00000        0.00000 )
      Ey  (        0.00000       -0.00679       -0.00000 )
      Ez  (        0.00000       -0.00000       -0.00679 )
           atom      2   Si Mean Z*:       -0.00679
      Ex  (       -0.00679        0.00000       -0.00000 )
      Ey  (        0.00000       -0.00679       -0.00000 )
      Ez  (       -0.00000       -0.00000       -0.00679 )

          Effective charges Sum: Mean:       -0.01358
             -0.01358        0.00000        0.00000
              0.00000       -0.01358       -0.00000
              0.00000       -0.00000       -0.01358

          Effective charges (d Force / dE) in cartesian axis with asr applied: 
           atom      1   Si Mean Z*:        0.00000
      E*x (        0.00000        0.00000        0.00000 )
      E*y (        0.00000        0.00000       -0.00000 )
      E*z (        0.00000        0.00000        0.00000 )
           atom      2   Si Mean Z*:       -0.00000
      E*x (       -0.00000       -0.00000       -0.00000 )
      E*y (       -0.00000       -0.00000        0.00000 )
      E*z (       -0.00000       -0.00000       -0.00000 )


     Representation #   1 modes #   1   2   3

     Self-consistent Calculation

      iter #   1 total cpu time :    23.5 secs   av.it.:   5.8
      thresh= 1.000E-02 alpha_mix =  0.700 |ddv_scf|^2 =  5.119E-09

      iter #   2 total cpu time :    26.9 secs   av.it.:  12.2
      thresh= 7.155E-06 alpha_mix =  0.700 |ddv_scf|^2 =  1.150E-10

      iter #   3 total cpu time :    30.4 secs   av.it.:  12.2
      thresh= 1.073E-06 alpha_mix =  0.700 |ddv_scf|^2 =  4.294E-12

      iter #   4 total cpu time :    33.7 secs   av.it.:  12.1
      thresh= 2.072E-07 alpha_mix =  0.700 |ddv_scf|^2 =  1.391E-14

      iter #   5 total cpu time :    37.5 secs   av.it.:  12.3
      thresh= 1.179E-08 alpha_mix =  0.700 |ddv_scf|^2 =  6.462E-17

     End of self-consistent calculation

     Convergence has been achieved 


     Representation #   2 modes #   4   5   6

     Self-consistent Calculation

      iter #   1 total cpu time :    40.0 secs   av.it.:   6.0
      thresh= 1.000E-02 alpha_mix =  0.700 |ddv_scf|^2 =  3.695E-09

      iter #   2 total cpu time :    43.6 secs   av.it.:  12.4
      thresh= 6.079E-06 alpha_mix =  0.700 |ddv_scf|^2 =  1.329E-10

      iter #   3 total cpu time :    47.0 secs   av.it.:  12.4
      thresh= 1.153E-06 alpha_mix =  0.700 |ddv_scf|^2 =  6.049E-12

      iter #   4 total cpu time :    51.1 secs   av.it.:  12.4
      thresh= 2.459E-07 alpha_mix =  0.700 |ddv_scf|^2 =  1.083E-14

      iter #   5 total cpu time :    54.5 secs   av.it.:  12.5
      thresh= 1.041E-08 alpha_mix =  0.700 |ddv_scf|^2 =  2.889E-17

     End of self-consistent calculation

     Convergence has been achieved 
 
     Number of q in the star =    1
     List of q in the star:
          1   0.000000000   0.000000000   0.000000000

          Dielectric constant in cartesian axis 

          (      13.312199356       0.000000000      -0.000000000 )
          (       0.000000000      13.312199356      -0.000000000 )
          (      -0.000000000      -0.000000000      13.312199356 )

          Effective charges (d Force / dE) in cartesian axis without acoustic sum rule applied (asr)

           atom      1   Si Mean Z*:       -0.00679
      Ex  (       -0.00679        0.00000        0.00000 )
      Ey  (        0.00000       -0.00679       -0.00000 )
      Ez  (        0.00000       -0.00000       -0.00679 )
           atom      2   Si Mean Z*:       -0.00679
      Ex  (       -0.00679        0.00000       -0.00000 )
      Ey  (        0.00000       -0.00679       -0.00000 )
      Ez  (       -0.00000       -0.00000       -0.00679 )

          Effective charges Sum: Mean:       -0.01358
             -0.01358        0.00000        0.00000
              0.00000       -0.01358       -0.00000
              0.00000       -0.00000       -0.01358

          Effective charges (d Force / dE) in cartesian axis with asr applied: 
           atom      1   Si Mean Z*:        0.00000
      E*x (        0.00000        0.00000        0.00000 )
      E*y (        0.00000        0.00000       -0.00000 )
      E*z (        0.00000        0.00000        0.00000 )
           atom      2   Si Mean Z*:       -0.00000
      E*x (       -0.00000       -0.00000       -0.00000 )
      E*y (       -0.00000       -0.00000        0.00000 )
      E*z (       -0.00000       -0.00000       -0.00000 )

          Effective charges (d P / du) in cartesian axis 

           atom      1   Si 
      Px  (       -0.00686       -0.00000       -0.00000 )
      Py  (       -0.00000       -0.00686       -0.00000 )
      Pz  (       -0.00000        0.00000       -0.00686 )
           atom      2   Si 
      Px  (       -0.00686       -0.00000       -0.00000 )
      Py  (       -0.00000       -0.00686        0.00000 )
      Pz  (       -0.00000       -0.00000       -0.00686 )

     Diagonalizing the dynamical matrix

     q = (    0.000000000   0.000000000   0.000000000 ) 

 **************************************************************************
     freq (    1) =      -0.117450 [THz] =      -3.917702 [cm-1]
     freq (    2) =      -0.117450 [THz] =      -3.917702 [cm-1]
     freq (    3) =      -0.117450 [THz] =      -3.917702 [cm-1]
     freq (    4) =      15.412109 [THz] =     514.092610 [cm-1]
     freq (    5) =      15.412109 [THz] =     514.092610 [cm-1]
     freq (    6) =      15.412109 [THz] =     514.092610 [cm-1]
 **************************************************************************

     Mode symmetry, O_h (m-3m)  point group:

     freq (   1-   3) =         -3.9  [cm-1]   --> T_1u G_15  G_4- I  
     freq (   4-   6) =        514.1  [cm-1]   --> T_2g G_25' G_5+ R  

     Calculation of q =   -0.1666667   0.1666667  -0.1666667

     Subspace diagonalization in iterative solution of the eigenvalue problem:
     one sub-group per band group will be used
     scalapack distributed-memory algorithm (size of sub-group:  4*  4 procs)

 
     Parallelization info
     --------------------
     sticks:   dense  smooth     PW     G-vecs:    dense   smooth      PW
     Min          27      27      8                  578      578     100
     Max          28      28      9                  581      581     105
     Sum        1003    1003    313                20875    20875    3695
 
     Using Slab Decomposition
 

     Title: 
     default                                                                    


     bravais-lattice index     =            2
     lattice parameter (alat)  =      10.1899  a.u.
     unit-cell volume          =     264.5151 (a.u.)^3
     number of atoms/cell      =            2
     number of atomic types    =            1
     number of electrons       =         8.00
     number of Kohn-Sham states=            4
     kinetic-energy cutoff     =      70.0000  Ry
     charge density cutoff     =     280.0000  Ry
     Exchange-correlation= PW
                           (   1   4   0   0   0   0   0)

     celldm(1)=  10.189905  celldm(2)=   0.000000  celldm(3)=   0.000000
     celldm(4)=   0.000000  celldm(5)=   0.000000  celldm(6)=   0.000000

     crystal axes: (cart. coord. in units of alat)
               a(1) = (  -0.500000   0.000000   0.500000 )  
               a(2) = (   0.000000   0.500000   0.500000 )  
               a(3) = (  -0.500000   0.500000   0.000000 )  

     reciprocal axes: (cart. coord. in units 2 pi/alat)
               b(1) = ( -1.000000 -1.000000  1.000000 )  
               b(2) = (  1.000000  1.000000  1.000000 )  
               b(3) = ( -1.000000  1.000000 -1.000000 )  


     PseudoPot. # 1 for Si read from file:
     ./pseudos/Si.nc.UPF
     MD5 check sum: 9e2d726316af3d4752eea8ab0afbb951
     Pseudo is Norm-conserving + core correction, Zval =  4.0
     Generated using ONCVPSP code by D. R. Hamann
     Using radial grid of 1510 points,  6 beta functions with: 
                l(1) =   0
                l(2) =   0
                l(3) =   1
                l(4) =   1
                l(5) =   2
                l(6) =   2

     atomic species   valence    mass     pseudopotential
        Si             4.00    28.08550     Si( 1.00)

     48 Sym. Ops., with inversion, found



   Cartesian axes

     site n.     atom                  positions (alat units)
         1           Si  tau(   1) = (   0.0000000   0.0000000   0.0000000  )
         2           Si  tau(   2) = (  -0.2500000   0.2500000   0.2500000  )

     number of k points=   364

     Number of k-points >= 100: set verbosity='high' to print them.

     Dense  grid:    20875 G-vectors     FFT dimensions: (  40,  40,  40)

     Estimated max dynamical RAM per process >       1.73 MB

     Estimated total dynamical RAM >      62.19 MB

     The potential is recalculated from file :
     /fastscratch/tsievers/QE_TMP_DIR/_ph0/silicon_ph_bench_nd_16_n_procs_36_1.save/charge-density

     Starting wfcs are    8 atomic wfcs

     Band Structure Calculation
     Davidson diagonalization with overlap

     ethr =  1.25E-10,  avg # of iterations = 12.9

     total cpu time spent up to now is       22.9 secs

     End of band structure calculation

     Number of k-points >= 100: set verbosity='high' to print the bands.

     highest occupied level (ev):     6.1106

     Writing config to output data dir /fastscratch/tsievers/QE_TMP_DIR/_ph0/silicon_ph_bench_nd_16_n_procs_36_1.save/

     default                                                                    

     bravais-lattice index     =            2
     lattice parameter (alat)  =      10.1899  a.u.
     unit-cell volume          =     264.5151 (a.u.)^3
     number of atoms/cell      =            2
     number of atomic types    =            1
     kinetic-energy cut-off    =      70.0000  Ry
     charge density cut-off    =     280.0000  Ry
     convergence threshold     =      1.0E-15
     beta                      =       0.7000
     number of iterations used =            4
     Exchange-correlation= PW
                           (   1   4   0   0   0   0   0)


     celldm(1)=   10.18990  celldm(2)=    0.00000  celldm(3)=    0.00000
     celldm(4)=    0.00000  celldm(5)=    0.00000  celldm(6)=    0.00000

     crystal axes: (cart. coord. in units of alat)
               a(1) = ( -0.5000  0.0000  0.5000 )  
               a(2) = (  0.0000  0.5000  0.5000 )  
               a(3) = ( -0.5000  0.5000  0.0000 )  

     reciprocal axes: (cart. coord. in units 2 pi/alat)
               b(1) = ( -1.0000 -1.0000  1.0000 )  
               b(2) = (  1.0000  1.0000  1.0000 )  
               b(3) = ( -1.0000  1.0000 -1.0000 )  


     Atoms inside the unit cell: 

     Cartesian axes

     site n.  atom      mass           positions (alat units)
        1     Si  28.0855   tau(    1) = (    0.00000    0.00000    0.00000  )
        2     Si  28.0855   tau(    2) = (   -0.25000    0.25000    0.25000  )

     Computing dynamical matrix for 
                    q = (  -0.1666667   0.1666667  -0.1666667 )
 
      6 Sym.Ops. (no q -> -q+G )


     G cutoff =  736.4420  (    581 G-vectors)     FFT grid: ( 40, 40, 40)
     number of k points=   364

     PseudoPot. # 1 for Si read from file:
     ./pseudos/Si.nc.UPF
     MD5 check sum: 9e2d726316af3d4752eea8ab0afbb951
     Pseudo is Norm-conserving + core correction, Zval =  4.0
     Generated using ONCVPSP code by D. R. Hamann
     Using radial grid of 1510 points,  6 beta functions with: 
                l(1) =   0
                l(2) =   0
                l(3) =   1
                l(4) =   1
                l(5) =   2
                l(6) =   2

     Mode symmetry, C_3v (3m)   point group:


     Atomic displacements:
     There are    4 irreducible representations

     Representation     1      1 modes -  To be done

     Representation     2      1 modes -  To be done

     Representation     3      2 modes -  To be done

     Representation     4      2 modes -  To be done



     Alpha used in Ewald sum =   2.8000
     PHONON       :   1m13.96s CPU   1m18.79s WALL



     Representation #   1 mode #   1

     Self-consistent Calculation

      iter #   1 total cpu time :    82.7 secs   av.it.:   6.6
      thresh= 1.000E-02 alpha_mix =  0.700 |ddv_scf|^2 =  4.790E-04

      iter #   2 total cpu time :    87.7 secs   av.it.:   9.4
      thresh= 2.189E-03 alpha_mix =  0.700 |ddv_scf|^2 =  1.569E-02

      iter #   3 total cpu time :    91.9 secs   av.it.:   7.7
      thresh= 1.000E-02 alpha_mix =  0.700 |ddv_scf|^2 =  1.276E-07

      iter #   4 total cpu time :    97.3 secs   av.it.:   9.6
      thresh= 3.572E-05 alpha_mix =  0.700 |ddv_scf|^2 =  4.176E-09

      iter #   5 total cpu time :   102.5 secs   av.it.:  10.1
      thresh= 6.462E-06 alpha_mix =  0.700 |ddv_scf|^2 =  1.209E-10

      iter #   6 total cpu time :   107.5 secs   av.it.:   9.6
      thresh= 1.100E-06 alpha_mix =  0.700 |ddv_scf|^2 =  7.318E-11

      iter #   7 total cpu time :   112.1 secs   av.it.:   8.3
      thresh= 8.555E-07 alpha_mix =  0.700 |ddv_scf|^2 =  4.825E-11

      iter #   8 total cpu time :   117.4 secs   av.it.:   8.6
      thresh= 6.946E-07 alpha_mix =  0.700 |ddv_scf|^2 =  2.287E-13

      iter #   9 total cpu time :   122.2 secs   av.it.:   8.9
      thresh= 4.782E-08 alpha_mix =  0.700 |ddv_scf|^2 =  4.767E-15

      iter #  10 total cpu time :   127.0 secs   av.it.:   9.2
      thresh= 6.904E-09 alpha_mix =  0.700 |ddv_scf|^2 =  5.963E-16

     End of self-consistent calculation

     Convergence has been achieved 


     Representation #   2 mode #   2

     Self-consistent Calculation

      iter #   1 total cpu time :   131.0 secs   av.it.:   6.6
      thresh= 1.000E-02 alpha_mix =  0.700 |ddv_scf|^2 =  4.790E-04

      iter #   2 total cpu time :   135.9 secs   av.it.:   9.4
      thresh= 2.189E-03 alpha_mix =  0.700 |ddv_scf|^2 =  1.569E-02

      iter #   3 total cpu time :   140.2 secs   av.it.:   7.7
      thresh= 1.000E-02 alpha_mix =  0.700 |ddv_scf|^2 =  1.276E-07

      iter #   4 total cpu time :   146.2 secs   av.it.:   9.6
      thresh= 3.572E-05 alpha_mix =  0.700 |ddv_scf|^2 =  4.176E-09

      iter #   5 total cpu time :   151.5 secs   av.it.:  10.1
      thresh= 6.462E-06 alpha_mix =  0.700 |ddv_scf|^2 =  1.209E-10

      iter #   6 total cpu time :   157.7 secs   av.it.:   9.6
      thresh= 1.100E-06 alpha_mix =  0.700 |ddv_scf|^2 =  7.320E-11

      iter #   7 total cpu time :   162.2 secs   av.it.:   8.3
      thresh= 8.556E-07 alpha_mix =  0.700 |ddv_scf|^2 =  4.824E-11

      iter #   8 total cpu time :   167.0 secs   av.it.:   8.6
      thresh= 6.946E-07 alpha_mix =  0.700 |ddv_scf|^2 =  2.287E-13

      iter #   9 total cpu time :   172.4 secs   av.it.:   8.9
      thresh= 4.782E-08 alpha_mix =  0.700 |ddv_scf|^2 =  4.767E-15

      iter #  10 total cpu time :   177.5 secs   av.it.:   9.2
      thresh= 6.904E-09 alpha_mix =  0.700 |ddv_scf|^2 =  5.963E-16

     End of self-consistent calculation

     Convergence has been achieved 


     Representation #   3 modes #   3   4

     Self-consistent Calculation

      iter #   1 total cpu time :   184.8 secs   av.it.:   6.1
      thresh= 1.000E-02 alpha_mix =  0.700 |ddv_scf|^2 =  1.249E-08

      iter #   2 total cpu time :   199.8 secs   av.it.:  12.0
      thresh= 1.118E-05 alpha_mix =  0.700 |ddv_scf|^2 =  5.559E-10

      iter #   3 total cpu time :   212.6 secs   av.it.:  11.9
      thresh= 2.358E-06 alpha_mix =  0.700 |ddv_scf|^2 =  1.452E-11

      iter #   4 total cpu time :   225.0 secs   av.it.:  12.0
      thresh= 3.810E-07 alpha_mix =  0.700 |ddv_scf|^2 =  1.675E-13

      iter #   5 total cpu time :   238.4 secs   av.it.:  12.0
      thresh= 4.092E-08 alpha_mix =  0.700 |ddv_scf|^2 =  3.554E-15

      iter #   6 total cpu time :   251.7 secs   av.it.:  12.2
      thresh= 5.962E-09 alpha_mix =  0.700 |ddv_scf|^2 =  1.614E-17

     End of self-consistent calculation

     Convergence has been achieved 


     Representation #   4 modes #   5   6

     Self-consistent Calculation

      iter #   1 total cpu time :   259.1 secs   av.it.:   6.0
      thresh= 1.000E-02 alpha_mix =  0.700 |ddv_scf|^2 =  1.250E-08

      iter #   2 total cpu time :   271.5 secs   av.it.:  12.0
      thresh= 1.118E-05 alpha_mix =  0.700 |ddv_scf|^2 =  5.562E-10

      iter #   3 total cpu time :   284.0 secs   av.it.:  11.9
      thresh= 2.358E-06 alpha_mix =  0.700 |ddv_scf|^2 =  1.452E-11

      iter #   4 total cpu time :   295.9 secs   av.it.:  12.0
      thresh= 3.810E-07 alpha_mix =  0.700 |ddv_scf|^2 =  1.675E-13

      iter #   5 total cpu time :   308.1 secs   av.it.:  12.0
      thresh= 4.093E-08 alpha_mix =  0.700 |ddv_scf|^2 =  3.559E-15

      iter #   6 total cpu time :   320.8 secs   av.it.:  12.2
      thresh= 5.966E-09 alpha_mix =  0.700 |ddv_scf|^2 =  1.613E-17

     End of self-consistent calculation

     Convergence has been achieved 
 
     Number of q in the star =    8
     List of q in the star:
          1  -0.166666667   0.166666667  -0.166666667
          2   0.166666667   0.166666667   0.166666667
          3  -0.166666667  -0.166666667  -0.166666667
          4   0.166666667  -0.166666667   0.166666667
          5   0.166666667  -0.166666667  -0.166666667
          6   0.166666667   0.166666667  -0.166666667
          7  -0.166666667  -0.166666667   0.166666667
          8  -0.166666667   0.166666667   0.166666667

     Diagonalizing the dynamical matrix

     q = (   -0.166666667   0.166666667  -0.166666667 ) 

 **************************************************************************
     freq (    1) =       2.202767 [THz] =      73.476409 [cm-1]
     freq (    2) =       2.202767 [THz] =      73.476409 [cm-1]
     freq (    3) =       4.748508 [THz] =     158.393167 [cm-1]
     freq (    4) =      15.023997 [THz] =     501.146605 [cm-1]
     freq (    5) =      15.065893 [THz] =     502.544081 [cm-1]
     freq (    6) =      15.065893 [THz] =     502.544081 [cm-1]
 **************************************************************************

     Mode symmetry, C_3v (3m)   point group:

     freq (   1-   2) =         73.5  [cm-1]   --> E    L_3           
     freq (   3-   3) =        158.4  [cm-1]   --> A_1  L_1           
     freq (   4-   4) =        501.1  [cm-1]   --> A_1  L_1           
     freq (   5-   6) =        502.5  [cm-1]   --> E    L_3           

     Calculation of q =   -0.3333333   0.3333333  -0.3333333
 
     Parallelization info
     --------------------
     sticks:   dense  smooth     PW     G-vecs:    dense   smooth      PW
     Min          27      27      8                  578      578     103
     Max          28      28      9                  581      581     109
     Sum        1003    1003    313                20875    20875    3839
 
     Using Slab Decomposition
 

     Title: 
     default                                                                    


     bravais-lattice index     =            2
     lattice parameter (alat)  =      10.1899  a.u.
     unit-cell volume          =     264.5151 (a.u.)^3
     number of atoms/cell      =            2
     number of atomic types    =            1
     number of electrons       =         8.00
     number of Kohn-Sham states=            4
     kinetic-energy cutoff     =      70.0000  Ry
     charge density cutoff     =     280.0000  Ry
     Exchange-correlation= PW
                           (   1   4   0   0   0   0   0)

     celldm(1)=  10.189905  celldm(2)=   0.000000  celldm(3)=   0.000000
     celldm(4)=   0.000000  celldm(5)=   0.000000  celldm(6)=   0.000000

     crystal axes: (cart. coord. in units of alat)
               a(1) = (  -0.500000   0.000000   0.500000 )  
               a(2) = (   0.000000   0.500000   0.500000 )  
               a(3) = (  -0.500000   0.500000   0.000000 )  

     reciprocal axes: (cart. coord. in units 2 pi/alat)
               b(1) = ( -1.000000 -1.000000  1.000000 )  
               b(2) = (  1.000000  1.000000  1.000000 )  
               b(3) = ( -1.000000  1.000000 -1.000000 )  


     PseudoPot. # 1 for Si read from file:
     ./pseudos/Si.nc.UPF
     MD5 check sum: 9e2d726316af3d4752eea8ab0afbb951
     Pseudo is Norm-conserving + core correction, Zval =  4.0
     Generated using ONCVPSP code by D. R. Hamann
     Using radial grid of 1510 points,  6 beta functions with: 
                l(1) =   0
                l(2) =   0
                l(3) =   1
                l(4) =   1
                l(5) =   2
                l(6) =   2

     atomic species   valence    mass     pseudopotential
        Si             4.00    28.08550     Si( 1.00)

     48 Sym. Ops., with inversion, found



   Cartesian axes

     site n.     atom                  positions (alat units)
         1           Si  tau(   1) = (   0.0000000   0.0000000   0.0000000  )
         2           Si  tau(   2) = (  -0.2500000   0.2500000   0.2500000  )

     number of k points=   364

     Number of k-points >= 100: set verbosity='high' to print them.

     Dense  grid:    20875 G-vectors     FFT dimensions: (  40,  40,  40)

     Estimated max dynamical RAM per process >       1.74 MB

     Estimated total dynamical RAM >      62.68 MB

     The potential is recalculated from file :
     /fastscratch/tsievers/QE_TMP_DIR/_ph0/silicon_ph_bench_nd_16_n_procs_36_1.save/charge-density

     Starting wfcs are    8 atomic wfcs

     Band Structure Calculation
     Davidson diagonalization with overlap

     ethr =  1.25E-10,  avg # of iterations = 12.9

     total cpu time spent up to now is       46.0 secs

     End of band structure calculation

     Number of k-points >= 100: set verbosity='high' to print the bands.

     highest occupied level (ev):     6.1106

     Writing config to output data dir /fastscratch/tsievers/QE_TMP_DIR/_ph0/silicon_ph_bench_nd_16_n_procs_36_1.save/

     default                                                                    

     bravais-lattice index     =            2
     lattice parameter (alat)  =      10.1899  a.u.
     unit-cell volume          =     264.5151 (a.u.)^3
     number of atoms/cell      =            2
     number of atomic types    =            1
     kinetic-energy cut-off    =      70.0000  Ry
     charge density cut-off    =     280.0000  Ry
     convergence threshold     =      1.0E-15
     beta                      =       0.7000
     number of iterations used =            4
     Exchange-correlation= PW
                           (   1   4   0   0   0   0   0)


     celldm(1)=   10.18990  celldm(2)=    0.00000  celldm(3)=    0.00000
     celldm(4)=    0.00000  celldm(5)=    0.00000  celldm(6)=    0.00000

     crystal axes: (cart. coord. in units of alat)
               a(1) = ( -0.5000  0.0000  0.5000 )  
               a(2) = (  0.0000  0.5000  0.5000 )  
               a(3) = ( -0.5000  0.5000  0.0000 )  

     reciprocal axes: (cart. coord. in units 2 pi/alat)
               b(1) = ( -1.0000 -1.0000  1.0000 )  
               b(2) = (  1.0000  1.0000  1.0000 )  
               b(3) = ( -1.0000  1.0000 -1.0000 )  


     Atoms inside the unit cell: 

     Cartesian axes

     site n.  atom      mass           positions (alat units)
        1     Si  28.0855   tau(    1) = (    0.00000    0.00000    0.00000  )
        2     Si  28.0855   tau(    2) = (   -0.25000    0.25000    0.25000  )

     Computing dynamical matrix for 
                    q = (  -0.3333333   0.3333333  -0.3333333 )
 
      6 Sym.Ops. (no q -> -q+G )


     G cutoff =  736.4420  (    581 G-vectors)     FFT grid: ( 40, 40, 40)
     number of k points=   364

     PseudoPot. # 1 for Si read from file:
     ./pseudos/Si.nc.UPF
     MD5 check sum: 9e2d726316af3d4752eea8ab0afbb951
     Pseudo is Norm-conserving + core correction, Zval =  4.0
     Generated using ONCVPSP code by D. R. Hamann
     Using radial grid of 1510 points,  6 beta functions with: 
                l(1) =   0
                l(2) =   0
                l(3) =   1
                l(4) =   1
                l(5) =   2
                l(6) =   2

     Mode symmetry, C_3v (3m)   point group:


     Atomic displacements:
     There are    4 irreducible representations

     Representation     1      1 modes -  To be done

     Representation     2      1 modes -  To be done

     Representation     3      2 modes -  To be done

     Representation     4      2 modes -  To be done



     Alpha used in Ewald sum =   2.8000
     PHONON       :   5m29.37s CPU   5m44.83s WALL



     Representation #   1 mode #   1

     Self-consistent Calculation

      iter #   1 total cpu time :   349.2 secs   av.it.:   6.5
      thresh= 1.000E-02 alpha_mix =  0.700 |ddv_scf|^2 =  3.033E-05

      iter #   2 total cpu time :   355.7 secs   av.it.:  10.2
      thresh= 5.507E-04 alpha_mix =  0.700 |ddv_scf|^2 =  2.420E-04

      iter #   3 total cpu time :   360.4 secs   av.it.:   8.8
      thresh= 1.556E-03 alpha_mix =  0.700 |ddv_scf|^2 =  4.458E-08

      iter #   4 total cpu time :   367.0 secs   av.it.:  10.4
      thresh= 2.111E-05 alpha_mix =  0.700 |ddv_scf|^2 =  9.070E-10

      iter #   5 total cpu time :   372.4 secs   av.it.:  10.4
      thresh= 3.012E-06 alpha_mix =  0.700 |ddv_scf|^2 =  9.543E-12

      iter #   6 total cpu time :   378.0 secs   av.it.:  11.0
      thresh= 3.089E-07 alpha_mix =  0.700 |ddv_scf|^2 =  8.485E-13

      iter #   7 total cpu time :   385.7 secs   av.it.:  10.9
      thresh= 9.211E-08 alpha_mix =  0.700 |ddv_scf|^2 =  2.172E-13

      iter #   8 total cpu time :   391.0 secs   av.it.:  10.3
      thresh= 4.661E-08 alpha_mix =  0.700 |ddv_scf|^2 =  5.843E-13

      iter #   9 total cpu time :   396.0 secs   av.it.:   9.4
      thresh= 7.644E-08 alpha_mix =  0.700 |ddv_scf|^2 =  4.160E-14

      iter #  10 total cpu time :   401.2 secs   av.it.:   9.3
      thresh= 2.040E-08 alpha_mix =  0.700 |ddv_scf|^2 =  1.373E-16

     End of self-consistent calculation

     Convergence has been achieved 


     Representation #   2 mode #   2

     Self-consistent Calculation

      iter #   1 total cpu time :   405.2 secs   av.it.:   6.5
      thresh= 1.000E-02 alpha_mix =  0.700 |ddv_scf|^2 =  3.033E-05

      iter #   2 total cpu time :   411.1 secs   av.it.:  10.2
      thresh= 5.507E-04 alpha_mix =  0.700 |ddv_scf|^2 =  2.420E-04

      iter #   3 total cpu time :   415.9 secs   av.it.:   8.8
      thresh= 1.556E-03 alpha_mix =  0.700 |ddv_scf|^2 =  4.458E-08

      iter #   4 total cpu time :   421.3 secs   av.it.:  10.4
      thresh= 2.111E-05 alpha_mix =  0.700 |ddv_scf|^2 =  9.070E-10

      iter #   5 total cpu time :   426.7 secs   av.it.:  10.4
      thresh= 3.012E-06 alpha_mix =  0.700 |ddv_scf|^2 =  9.543E-12

      iter #   6 total cpu time :   432.3 secs   av.it.:  11.0
      thresh= 3.089E-07 alpha_mix =  0.700 |ddv_scf|^2 =  8.485E-13

      iter #   7 total cpu time :   437.9 secs   av.it.:  10.9
      thresh= 9.212E-08 alpha_mix =  0.700 |ddv_scf|^2 =  2.174E-13

      iter #   8 total cpu time :   443.6 secs   av.it.:  10.3
      thresh= 4.662E-08 alpha_mix =  0.700 |ddv_scf|^2 =  5.844E-13

      iter #   9 total cpu time :   448.7 secs   av.it.:   9.4
      thresh= 7.645E-08 alpha_mix =  0.700 |ddv_scf|^2 =  4.163E-14

      iter #  10 total cpu time :   453.6 secs   av.it.:   9.3
      thresh= 2.040E-08 alpha_mix =  0.700 |ddv_scf|^2 =  1.375E-16

     End of self-consistent calculation

     Convergence has been achieved 


     Representation #   3 modes #   3   4

     Self-consistent Calculation

      iter #   1 total cpu time :   461.0 secs   av.it.:   6.1
      thresh= 1.000E-02 alpha_mix =  0.700 |ddv_scf|^2 =  1.702E-08

      iter #   2 total cpu time :   473.8 secs   av.it.:  12.0
      thresh= 1.305E-05 alpha_mix =  0.700 |ddv_scf|^2 =  1.179E-09

      iter #   3 total cpu time :   486.1 secs   av.it.:  11.8
      thresh= 3.434E-06 alpha_mix =  0.700 |ddv_scf|^2 =  1.707E-11

      iter #   4 total cpu time :   498.7 secs   av.it.:  11.9
      thresh= 4.131E-07 alpha_mix =  0.700 |ddv_scf|^2 =  1.712E-13

      iter #   5 total cpu time :   510.9 secs   av.it.:  11.9
      thresh= 4.138E-08 alpha_mix =  0.700 |ddv_scf|^2 =  3.332E-15

      iter #   6 total cpu time :   523.6 secs   av.it.:  12.2
      thresh= 5.773E-09 alpha_mix =  0.700 |ddv_scf|^2 =  2.270E-17

     End of self-consistent calculation

     Convergence has been achieved 


     Representation #   4 modes #   5   6

     Self-consistent Calculation

      iter #   1 total cpu time :   531.9 secs   av.it.:   6.0
      thresh= 1.000E-02 alpha_mix =  0.700 |ddv_scf|^2 =  1.702E-08

      iter #   2 total cpu time :   544.3 secs   av.it.:  12.0
      thresh= 1.305E-05 alpha_mix =  0.700 |ddv_scf|^2 =  1.180E-09

      iter #   3 total cpu time :   556.4 secs   av.it.:  11.8
      thresh= 3.435E-06 alpha_mix =  0.700 |ddv_scf|^2 =  1.706E-11

      iter #   4 total cpu time :   568.4 secs   av.it.:  11.9
      thresh= 4.130E-07 alpha_mix =  0.700 |ddv_scf|^2 =  1.712E-13

      iter #   5 total cpu time :   580.5 secs   av.it.:  11.9
      thresh= 4.137E-08 alpha_mix =  0.700 |ddv_scf|^2 =  3.330E-15

      iter #   6 total cpu time :   593.0 secs   av.it.:  12.2
      thresh= 5.770E-09 alpha_mix =  0.700 |ddv_scf|^2 =  2.267E-17

     End of self-consistent calculation

     Convergence has been achieved 
 
     Number of q in the star =    8
     List of q in the star:
          1  -0.333333333   0.333333333  -0.333333333
          2   0.333333333   0.333333333   0.333333333
          3  -0.333333333  -0.333333333  -0.333333333
          4   0.333333333  -0.333333333   0.333333333
          5   0.333333333  -0.333333333  -0.333333333
          6   0.333333333   0.333333333  -0.333333333
          7  -0.333333333  -0.333333333   0.333333333
          8  -0.333333333   0.333333333   0.333333333

     Diagonalizing the dynamical matrix

     q = (   -0.333333333   0.333333333  -0.333333333 ) 

 **************************************************************************
     freq (    1) =       3.044117 [THz] =     101.540810 [cm-1]
     freq (    2) =       3.044117 [THz] =     101.540810 [cm-1]
     freq (    3) =       8.748116 [THz] =     291.805744 [cm-1]
     freq (    4) =      13.857492 [THz] =     462.236167 [cm-1]
     freq (    5) =      14.763303 [THz] =     492.450785 [cm-1]
     freq (    6) =      14.763303 [THz] =     492.450785 [cm-1]
 **************************************************************************

     Mode symmetry, C_3v (3m)   point group:

     freq (   1-   2) =        101.5  [cm-1]   --> E    L_3           
     freq (   3-   3) =        291.8  [cm-1]   --> A_1  L_1           
     freq (   4-   4) =        462.2  [cm-1]   --> A_1  L_1           
     freq (   5-   6) =        492.5  [cm-1]   --> E    L_3           

     Calculation of q =    0.5000000  -0.5000000   0.5000000
 
     Parallelization info
     --------------------
     sticks:   dense  smooth     PW     G-vecs:    dense   smooth      PW
     Min          27      27      9                  578      578     110
     Max          28      28     11                  581      581     113
     Sum        1003    1003    337                20875    20875    4015
 
     Using Slab Decomposition
 

     Title: 
     default                                                                    


     bravais-lattice index     =            2
     lattice parameter (alat)  =      10.1899  a.u.
     unit-cell volume          =     264.5151 (a.u.)^3
     number of atoms/cell      =            2
     number of atomic types    =            1
     number of electrons       =         8.00
     number of Kohn-Sham states=            4
     kinetic-energy cutoff     =      70.0000  Ry
     charge density cutoff     =     280.0000  Ry
     Exchange-correlation= PW
                           (   1   4   0   0   0   0   0)

     celldm(1)=  10.189905  celldm(2)=   0.000000  celldm(3)=   0.000000
     celldm(4)=   0.000000  celldm(5)=   0.000000  celldm(6)=   0.000000

     crystal axes: (cart. coord. in units of alat)
               a(1) = (  -0.500000   0.000000   0.500000 )  
               a(2) = (   0.000000   0.500000   0.500000 )  
               a(3) = (  -0.500000   0.500000   0.000000 )  

     reciprocal axes: (cart. coord. in units 2 pi/alat)
               b(1) = ( -1.000000 -1.000000  1.000000 )  
               b(2) = (  1.000000  1.000000  1.000000 )  
               b(3) = ( -1.000000  1.000000 -1.000000 )  


     PseudoPot. # 1 for Si read from file:
     ./pseudos/Si.nc.UPF
     MD5 check sum: 9e2d726316af3d4752eea8ab0afbb951
     Pseudo is Norm-conserving + core correction, Zval =  4.0
     Generated using ONCVPSP code by D. R. Hamann
     Using radial grid of 1510 points,  6 beta functions with: 
                l(1) =   0
                l(2) =   0
                l(3) =   1
                l(4) =   1
                l(5) =   2
                l(6) =   2

     atomic species   valence    mass     pseudopotential
        Si             4.00    28.08550     Si( 1.00)

     48 Sym. Ops., with inversion, found



   Cartesian axes

     site n.     atom                  positions (alat units)
         1           Si  tau(   1) = (   0.0000000   0.0000000   0.0000000  )
         2           Si  tau(   2) = (  -0.2500000   0.2500000   0.2500000  )

     number of k points=   182

     Number of k-points >= 100: set verbosity='high' to print them.

     Dense  grid:    20875 G-vectors     FFT dimensions: (  40,  40,  40)

     Estimated max dynamical RAM per process >       1.76 MB

     Estimated total dynamical RAM >      63.20 MB

     The potential is recalculated from file :
     /fastscratch/tsievers/QE_TMP_DIR/_ph0/silicon_ph_bench_nd_16_n_procs_36_1.save/charge-density

     Starting wfcs are    8 atomic wfcs

     Band Structure Calculation
     Davidson diagonalization with overlap

     ethr =  1.25E-10,  avg # of iterations = 12.9

     total cpu time spent up to now is       57.7 secs

     End of band structure calculation

     Number of k-points >= 100: set verbosity='high' to print the bands.

     highest occupied level (ev):     6.1106

     Writing config to output data dir /fastscratch/tsievers/QE_TMP_DIR/_ph0/silicon_ph_bench_nd_16_n_procs_36_1.save/

     default                                                                    

     bravais-lattice index     =            2
     lattice parameter (alat)  =      10.1899  a.u.
     unit-cell volume          =     264.5151 (a.u.)^3
     number of atoms/cell      =            2
     number of atomic types    =            1
     kinetic-energy cut-off    =      70.0000  Ry
     charge density cut-off    =     280.0000  Ry
     convergence threshold     =      1.0E-15
     beta                      =       0.7000
     number of iterations used =            4
     Exchange-correlation= PW
                           (   1   4   0   0   0   0   0)


     celldm(1)=   10.18990  celldm(2)=    0.00000  celldm(3)=    0.00000
     celldm(4)=    0.00000  celldm(5)=    0.00000  celldm(6)=    0.00000

     crystal axes: (cart. coord. in units of alat)
               a(1) = ( -0.5000  0.0000  0.5000 )  
               a(2) = (  0.0000  0.5000  0.5000 )  
               a(3) = ( -0.5000  0.5000  0.0000 )  

     reciprocal axes: (cart. coord. in units 2 pi/alat)
               b(1) = ( -1.0000 -1.0000  1.0000 )  
               b(2) = (  1.0000  1.0000  1.0000 )  
               b(3) = ( -1.0000  1.0000 -1.0000 )  


     Atoms inside the unit cell: 

     Cartesian axes

     site n.  atom      mass           positions (alat units)
        1     Si  28.0855   tau(    1) = (    0.00000    0.00000    0.00000  )
        2     Si  28.0855   tau(    2) = (   -0.25000    0.25000    0.25000  )

     Computing dynamical matrix for 
                    q = (   0.5000000  -0.5000000   0.5000000 )
 
     13 Sym.Ops. (with q -> -q+G )


     G cutoff =  736.4420  (    581 G-vectors)     FFT grid: ( 40, 40, 40)
     number of k points=   182

     PseudoPot. # 1 for Si read from file:
     ./pseudos/Si.nc.UPF
     MD5 check sum: 9e2d726316af3d4752eea8ab0afbb951
     Pseudo is Norm-conserving + core correction, Zval =  4.0
     Generated using ONCVPSP code by D. R. Hamann
     Using radial grid of 1510 points,  6 beta functions with: 
                l(1) =   0
                l(2) =   0
                l(3) =   1
                l(4) =   1
                l(5) =   2
                l(6) =   2


     Atomic displacements:
     There are    4 irreducible representations

     Representation     1      1 modes -  To be done

     Representation     2      1 modes -  To be done

     Representation     3      2 modes -  To be done

     Representation     4      2 modes -  To be done



     Alpha used in Ewald sum =   2.8000
     PHONON       :   9m39.42s CPU  10m 6.60s WALL



     Representation #   1 mode #   1

     Self-consistent Calculation

      iter #   1 total cpu time :   608.4 secs   av.it.:   5.8
      thresh= 1.000E-02 alpha_mix =  0.700 |ddv_scf|^2 =  9.702E-07

      iter #   2 total cpu time :   611.1 secs   av.it.:  10.5
      thresh= 9.850E-05 alpha_mix =  0.700 |ddv_scf|^2 =  8.951E-07

      iter #   3 total cpu time :   613.7 secs   av.it.:   9.8
      thresh= 9.461E-05 alpha_mix =  0.700 |ddv_scf|^2 =  1.196E-10

      iter #   4 total cpu time :   616.4 secs   av.it.:  10.6
      thresh= 1.094E-06 alpha_mix =  0.700 |ddv_scf|^2 =  2.064E-12

      iter #   5 total cpu time :   619.1 secs   av.it.:  10.4
      thresh= 1.437E-07 alpha_mix =  0.700 |ddv_scf|^2 =  2.937E-14

      iter #   6 total cpu time :   621.8 secs   av.it.:  10.4
      thresh= 1.714E-08 alpha_mix =  0.700 |ddv_scf|^2 =  3.836E-16

     End of self-consistent calculation

     Convergence has been achieved 


     Representation #   2 mode #   2

     Self-consistent Calculation

      iter #   1 total cpu time :   624.3 secs   av.it.:   6.7
      thresh= 1.000E-02 alpha_mix =  0.700 |ddv_scf|^2 =  1.482E-05

      iter #   2 total cpu time :   627.0 secs   av.it.:  10.6
      thresh= 3.850E-04 alpha_mix =  0.700 |ddv_scf|^2 =  4.842E-05

      iter #   3 total cpu time :   629.6 secs   av.it.:   9.6
      thresh= 6.959E-04 alpha_mix =  0.700 |ddv_scf|^2 =  2.860E-09

      iter #   4 total cpu time :   632.3 secs   av.it.:  10.3
      thresh= 5.348E-06 alpha_mix =  0.700 |ddv_scf|^2 =  6.021E-11

      iter #   5 total cpu time :   635.2 secs   av.it.:  10.8
      thresh= 7.760E-07 alpha_mix =  0.700 |ddv_scf|^2 =  3.010E-12

      iter #   6 total cpu time :   637.9 secs   av.it.:  10.5
      thresh= 1.735E-07 alpha_mix =  0.700 |ddv_scf|^2 =  8.528E-14

      iter #   7 total cpu time :   640.7 secs   av.it.:  10.1
      thresh= 2.920E-08 alpha_mix =  0.700 |ddv_scf|^2 =  1.425E-17

     End of self-consistent calculation

     Convergence has been achieved 


     Representation #   3 modes #   3   4

     Self-consistent Calculation

      iter #   1 total cpu time :   644.9 secs   av.it.:   6.1
      thresh= 1.000E-02 alpha_mix =  0.700 |ddv_scf|^2 =  3.425E-08

      iter #   2 total cpu time :   650.9 secs   av.it.:  11.8
      thresh= 1.851E-05 alpha_mix =  0.700 |ddv_scf|^2 =  2.904E-09

      iter #   3 total cpu time :   657.0 secs   av.it.:  11.7
      thresh= 5.388E-06 alpha_mix =  0.700 |ddv_scf|^2 =  1.944E-11

      iter #   4 total cpu time :   662.9 secs   av.it.:  11.6
      thresh= 4.409E-07 alpha_mix =  0.700 |ddv_scf|^2 =  2.174E-14

      iter #   5 total cpu time :   668.9 secs   av.it.:  12.1
      thresh= 1.474E-08 alpha_mix =  0.700 |ddv_scf|^2 =  2.863E-16

     End of self-consistent calculation

     Convergence has been achieved 


     Representation #   4 modes #   5   6

     Self-consistent Calculation

      iter #   1 total cpu time :   673.3 secs   av.it.:   5.5
      thresh= 1.000E-02 alpha_mix =  0.700 |ddv_scf|^2 =  3.888E-09

      iter #   2 total cpu time :   679.3 secs   av.it.:  11.8
      thresh= 6.235E-06 alpha_mix =  0.700 |ddv_scf|^2 =  1.019E-10

      iter #   3 total cpu time :   685.5 secs   av.it.:  11.7
      thresh= 1.010E-06 alpha_mix =  0.700 |ddv_scf|^2 =  6.266E-12

      iter #   4 total cpu time :   692.1 secs   av.it.:  11.7
      thresh= 2.503E-07 alpha_mix =  0.700 |ddv_scf|^2 =  2.680E-14

      iter #   5 total cpu time :   698.3 secs   av.it.:  11.8
      thresh= 1.637E-08 alpha_mix =  0.700 |ddv_scf|^2 =  4.284E-16

     End of self-consistent calculation

     Convergence has been achieved 
 
     Number of q in the star =    4
     List of q in the star:
          1   0.500000000  -0.500000000   0.500000000
          2   0.500000000   0.500000000   0.500000000
          3  -0.500000000   0.500000000   0.500000000
          4   0.500000000   0.500000000  -0.500000000

     Diagonalizing the dynamical matrix

     q = (    0.500000000  -0.500000000   0.500000000 ) 

 **************************************************************************
     freq (    1) =       3.157200 [THz] =     105.312862 [cm-1]
     freq (    2) =       3.157200 [THz] =     105.312862 [cm-1]
     freq (    3) =      11.169091 [THz] =     372.560781 [cm-1]
     freq (    4) =      12.390625 [THz] =     413.306747 [cm-1]
     freq (    5) =      14.704264 [THz] =     490.481460 [cm-1]
     freq (    6) =      14.704264 [THz] =     490.481460 [cm-1]
 **************************************************************************

     Calculation of q =    0.0000000   0.3333333   0.0000000
 
     Parallelization info
     --------------------
     sticks:   dense  smooth     PW     G-vecs:    dense   smooth      PW
     Min          27      27      8                  578      578     101
     Max          28      28      9                  581      581     106
     Sum        1003    1003    313                20875    20875    3719
 
     Using Slab Decomposition
 

     Title: 
     default                                                                    


     bravais-lattice index     =            2
     lattice parameter (alat)  =      10.1899  a.u.
     unit-cell volume          =     264.5151 (a.u.)^3
     number of atoms/cell      =            2
     number of atomic types    =            1
     number of electrons       =         8.00
     number of Kohn-Sham states=            4
     kinetic-energy cutoff     =      70.0000  Ry
     charge density cutoff     =     280.0000  Ry
     Exchange-correlation= PW
                           (   1   4   0   0   0   0   0)

     celldm(1)=  10.189905  celldm(2)=   0.000000  celldm(3)=   0.000000
     celldm(4)=   0.000000  celldm(5)=   0.000000  celldm(6)=   0.000000

     crystal axes: (cart. coord. in units of alat)
               a(1) = (  -0.500000   0.000000   0.500000 )  
               a(2) = (   0.000000   0.500000   0.500000 )  
               a(3) = (  -0.500000   0.500000   0.000000 )  

     reciprocal axes: (cart. coord. in units 2 pi/alat)
               b(1) = ( -1.000000 -1.000000  1.000000 )  
               b(2) = (  1.000000  1.000000  1.000000 )  
               b(3) = ( -1.000000  1.000000 -1.000000 )  


     PseudoPot. # 1 for Si read from file:
     ./pseudos/Si.nc.UPF
     MD5 check sum: 9e2d726316af3d4752eea8ab0afbb951
     Pseudo is Norm-conserving + core correction, Zval =  4.0
     Generated using ONCVPSP code by D. R. Hamann
     Using radial grid of 1510 points,  6 beta functions with: 
                l(1) =   0
                l(2) =   0
                l(3) =   1
                l(4) =   1
                l(5) =   2
                l(6) =   2

     atomic species   valence    mass     pseudopotential
        Si             4.00    28.08550     Si( 1.00)

     48 Sym. Ops., with inversion, found



   Cartesian axes

     site n.     atom                  positions (alat units)
         1           Si  tau(   1) = (   0.0000000   0.0000000   0.0000000  )
         2           Si  tau(   2) = (  -0.2500000   0.2500000   0.2500000  )

     number of k points=   252

     Number of k-points >= 100: set verbosity='high' to print them.

     Dense  grid:    20875 G-vectors     FFT dimensions: (  40,  40,  40)

     Estimated max dynamical RAM per process >       1.73 MB

     Estimated total dynamical RAM >      62.25 MB

     The potential is recalculated from file :
     /fastscratch/tsievers/QE_TMP_DIR/_ph0/silicon_ph_bench_nd_16_n_procs_36_1.save/charge-density

     Starting wfcs are    8 atomic wfcs

     Band Structure Calculation
     Davidson diagonalization with overlap

     ethr =  1.25E-10,  avg # of iterations = 12.8

     total cpu time spent up to now is       73.3 secs

     End of band structure calculation

     Number of k-points >= 100: set verbosity='high' to print the bands.

     highest occupied level (ev):     6.1106

     Writing config to output data dir /fastscratch/tsievers/QE_TMP_DIR/_ph0/silicon_ph_bench_nd_16_n_procs_36_1.save/

     default                                                                    

     bravais-lattice index     =            2
     lattice parameter (alat)  =      10.1899  a.u.
     unit-cell volume          =     264.5151 (a.u.)^3
     number of atoms/cell      =            2
     number of atomic types    =            1
     kinetic-energy cut-off    =      70.0000  Ry
     charge density cut-off    =     280.0000  Ry
     convergence threshold     =      1.0E-15
     beta                      =       0.7000
     number of iterations used =            4
     Exchange-correlation= PW
                           (   1   4   0   0   0   0   0)


     celldm(1)=   10.18990  celldm(2)=    0.00000  celldm(3)=    0.00000
     celldm(4)=    0.00000  celldm(5)=    0.00000  celldm(6)=    0.00000

     crystal axes: (cart. coord. in units of alat)
               a(1) = ( -0.5000  0.0000  0.5000 )  
               a(2) = (  0.0000  0.5000  0.5000 )  
               a(3) = ( -0.5000  0.5000  0.0000 )  

     reciprocal axes: (cart. coord. in units 2 pi/alat)
               b(1) = ( -1.0000 -1.0000  1.0000 )  
               b(2) = (  1.0000  1.0000  1.0000 )  
               b(3) = ( -1.0000  1.0000 -1.0000 )  


     Atoms inside the unit cell: 

     Cartesian axes

     site n.  atom      mass           positions (alat units)
        1     Si  28.0855   tau(    1) = (    0.00000    0.00000    0.00000  )
        2     Si  28.0855   tau(    2) = (   -0.25000    0.25000    0.25000  )

     Computing dynamical matrix for 
                    q = (   0.0000000   0.3333333   0.0000000 )
 
      8 Sym.Ops. (no q -> -q+G )


     G cutoff =  736.4420  (    581 G-vectors)     FFT grid: ( 40, 40, 40)
     number of k points=   252

     PseudoPot. # 1 for Si read from file:
     ./pseudos/Si.nc.UPF
     MD5 check sum: 9e2d726316af3d4752eea8ab0afbb951
     Pseudo is Norm-conserving + core correction, Zval =  4.0
     Generated using ONCVPSP code by D. R. Hamann
     Using radial grid of 1510 points,  6 beta functions with: 
                l(1) =   0
                l(2) =   0
                l(3) =   1
                l(4) =   1
                l(5) =   2
                l(6) =   2

     Mode symmetry, C_4v (4mm)  point group:


     Atomic displacements:
     There are    4 irreducible representations

     Representation     1      1 modes -  To be done

     Representation     2      1 modes -  To be done

     Representation     3      2 modes -  To be done

     Representation     4      2 modes -  To be done



     Alpha used in Ewald sum =   2.8000
     PHONON       :  11m22.63s CPU  11m55.71s WALL



     Representation #   1 mode #   1

     Self-consistent Calculation

      iter #   1 total cpu time :   718.5 secs   av.it.:   6.8
      thresh= 1.000E-02 alpha_mix =  0.700 |ddv_scf|^2 =  6.433E-04

      iter #   2 total cpu time :   722.0 secs   av.it.:   9.7
      thresh= 2.536E-03 alpha_mix =  0.700 |ddv_scf|^2 =  1.962E-02

      iter #   3 total cpu time :   725.7 secs   av.it.:   8.1
      thresh= 1.000E-02 alpha_mix =  0.700 |ddv_scf|^2 =  1.806E-08

      iter #   4 total cpu time :   729.2 secs   av.it.:   9.5
      thresh= 1.344E-05 alpha_mix =  0.700 |ddv_scf|^2 =  8.662E-10

      iter #   5 total cpu time :   732.6 secs   av.it.:   9.2
      thresh= 2.943E-06 alpha_mix =  0.700 |ddv_scf|^2 =  2.801E-10

      iter #   6 total cpu time :   735.9 secs   av.it.:   8.9
      thresh= 1.674E-06 alpha_mix =  0.700 |ddv_scf|^2 =  3.863E-13

      iter #   7 total cpu time :   739.2 secs   av.it.:   9.0
      thresh= 6.215E-08 alpha_mix =  0.700 |ddv_scf|^2 =  8.365E-15

      iter #   8 total cpu time :   742.9 secs   av.it.:   8.9
      thresh= 9.146E-09 alpha_mix =  0.700 |ddv_scf|^2 =  1.095E-16

     End of self-consistent calculation

     Convergence has been achieved 


     Representation #   2 mode #   2

     Self-consistent Calculation

      iter #   1 total cpu time :   746.2 secs   av.it.:   5.9
      thresh= 1.000E-02 alpha_mix =  0.700 |ddv_scf|^2 =  9.820E-08

      iter #   2 total cpu time :   751.4 secs   av.it.:  10.9
      thresh= 3.134E-05 alpha_mix =  0.700 |ddv_scf|^2 =  1.588E-08

      iter #   3 total cpu time :   755.3 secs   av.it.:  10.7
      thresh= 1.260E-05 alpha_mix =  0.700 |ddv_scf|^2 =  2.009E-10

      iter #   4 total cpu time :   759.1 secs   av.it.:  10.8
      thresh= 1.417E-06 alpha_mix =  0.700 |ddv_scf|^2 =  8.341E-12

      iter #   5 total cpu time :   763.0 secs   av.it.:  10.8
      thresh= 2.888E-07 alpha_mix =  0.700 |ddv_scf|^2 =  1.900E-14

      iter #   6 total cpu time :   766.9 secs   av.it.:  11.1
      thresh= 1.379E-08 alpha_mix =  0.700 |ddv_scf|^2 =  3.798E-16

     End of self-consistent calculation

     Convergence has been achieved 


     Representation #   3 modes #   3   4

     Self-consistent Calculation

      iter #   1 total cpu time :   772.2 secs   av.it.:   6.1
      thresh= 1.000E-02 alpha_mix =  0.700 |ddv_scf|^2 =  1.777E-08

      iter #   2 total cpu time :   782.4 secs   av.it.:  12.0
      thresh= 1.333E-05 alpha_mix =  0.700 |ddv_scf|^2 =  1.620E-09

      iter #   3 total cpu time :   790.7 secs   av.it.:  11.7
      thresh= 4.025E-06 alpha_mix =  0.700 |ddv_scf|^2 =  1.888E-11

      iter #   4 total cpu time :   799.1 secs   av.it.:  11.9
      thresh= 4.346E-07 alpha_mix =  0.700 |ddv_scf|^2 =  2.124E-13

      iter #   5 total cpu time :   807.3 secs   av.it.:  11.8
      thresh= 4.608E-08 alpha_mix =  0.700 |ddv_scf|^2 =  3.525E-15

      iter #   6 total cpu time :   816.4 secs   av.it.:  12.2
      thresh= 5.937E-09 alpha_mix =  0.700 |ddv_scf|^2 =  1.435E-17

     End of self-consistent calculation

     Convergence has been achieved 


     Representation #   4 modes #   5   6

     Self-consistent Calculation

      iter #   1 total cpu time :   822.1 secs   av.it.:   6.0
      thresh= 1.000E-02 alpha_mix =  0.700 |ddv_scf|^2 =  2.343E-08

      iter #   2 total cpu time :   830.4 secs   av.it.:  11.9
      thresh= 1.531E-05 alpha_mix =  0.700 |ddv_scf|^2 =  2.210E-09

      iter #   3 total cpu time :   839.5 secs   av.it.:  11.6
      thresh= 4.701E-06 alpha_mix =  0.700 |ddv_scf|^2 =  1.999E-11

      iter #   4 total cpu time :   848.1 secs   av.it.:  11.8
      thresh= 4.471E-07 alpha_mix =  0.700 |ddv_scf|^2 =  1.359E-13

      iter #   5 total cpu time :   856.6 secs   av.it.:  11.7
      thresh= 3.686E-08 alpha_mix =  0.700 |ddv_scf|^2 =  3.226E-15

      iter #   6 total cpu time :   865.0 secs   av.it.:  12.2
      thresh= 5.680E-09 alpha_mix =  0.700 |ddv_scf|^2 =  1.366E-17

     End of self-consistent calculation

     Convergence has been achieved 
 
     Number of q in the star =    6
     List of q in the star:
          1   0.000000000   0.333333333   0.000000000
          2   0.333333333   0.000000000   0.000000000
          3   0.000000000   0.000000000   0.333333333
          4   0.000000000  -0.333333333   0.000000000
          5  -0.333333333   0.000000000   0.000000000
          6   0.000000000   0.000000000  -0.333333333

     Diagonalizing the dynamical matrix

     q = (    0.000000000   0.333333333   0.000000000 ) 

 **************************************************************************
     freq (    1) =       2.948464 [THz] =      98.350180 [cm-1]
     freq (    2) =       2.948464 [THz] =      98.350180 [cm-1]
     freq (    3) =       4.953333 [THz] =     165.225405 [cm-1]
     freq (    4) =      14.670281 [THz] =     489.347889 [cm-1]
     freq (    5) =      14.670281 [THz] =     489.347889 [cm-1]
     freq (    6) =      15.142893 [THz] =     505.112530 [cm-1]
 **************************************************************************

     Mode symmetry, C_4v (4mm)  point group:

     freq (   1-   2) =         98.4  [cm-1]   --> E    G_5 D_5       
     freq (   3-   3) =        165.2  [cm-1]   --> A_1  G_1 D_1       
     freq (   4-   5) =        489.3  [cm-1]   --> E    G_5 D_5       
     freq (   6-   6) =        505.1  [cm-1]   --> B_2  G_4 D_2'      

     Calculation of q =   -0.1666667   0.5000000  -0.1666667
 
     Parallelization info
     --------------------
     sticks:   dense  smooth     PW     G-vecs:    dense   smooth      PW
     Min          27      27      8                  578      578     103
     Max          28      28      9                  581      581     109
     Sum        1003    1003    313                20875    20875    3839
 
     Using Slab Decomposition
 

     Title: 
     default                                                                    


     bravais-lattice index     =            2
     lattice parameter (alat)  =      10.1899  a.u.
     unit-cell volume          =     264.5151 (a.u.)^3
     number of atoms/cell      =            2
     number of atomic types    =            1
     number of electrons       =         8.00
     number of Kohn-Sham states=            4
     kinetic-energy cutoff     =      70.0000  Ry
     charge density cutoff     =     280.0000  Ry
     Exchange-correlation= PW
                           (   1   4   0   0   0   0   0)

     celldm(1)=  10.189905  celldm(2)=   0.000000  celldm(3)=   0.000000
     celldm(4)=   0.000000  celldm(5)=   0.000000  celldm(6)=   0.000000

     crystal axes: (cart. coord. in units of alat)
               a(1) = (  -0.500000   0.000000   0.500000 )  
               a(2) = (   0.000000   0.500000   0.500000 )  
               a(3) = (  -0.500000   0.500000   0.000000 )  

     reciprocal axes: (cart. coord. in units 2 pi/alat)
               b(1) = ( -1.000000 -1.000000  1.000000 )  
               b(2) = (  1.000000  1.000000  1.000000 )  
               b(3) = ( -1.000000  1.000000 -1.000000 )  


     PseudoPot. # 1 for Si read from file:
     ./pseudos/Si.nc.UPF
     MD5 check sum: 9e2d726316af3d4752eea8ab0afbb951
     Pseudo is Norm-conserving + core correction, Zval =  4.0
     Generated using ONCVPSP code by D. R. Hamann
     Using radial grid of 1510 points,  6 beta functions with: 
                l(1) =   0
                l(2) =   0
                l(3) =   1
                l(4) =   1
                l(5) =   2
                l(6) =   2

     atomic species   valence    mass     pseudopotential
        Si             4.00    28.08550     Si( 1.00)

     48 Sym. Ops., with inversion, found



   Cartesian axes

     site n.     atom                  positions (alat units)
         1           Si  tau(   1) = (   0.0000000   0.0000000   0.0000000  )
         2           Si  tau(   2) = (  -0.2500000   0.2500000   0.2500000  )

     number of k points=   936

     Number of k-points >= 100: set verbosity='high' to print them.

     Dense  grid:    20875 G-vectors     FFT dimensions: (  40,  40,  40)

     Estimated max dynamical RAM per process >       1.74 MB

     Estimated total dynamical RAM >      62.65 MB

     The potential is recalculated from file :
     /fastscratch/tsievers/QE_TMP_DIR/_ph0/silicon_ph_bench_nd_16_n_procs_36_1.save/charge-density

     Starting wfcs are    8 atomic wfcs

     Band Structure Calculation
     Davidson diagonalization with overlap

     ethr =  1.25E-10,  avg # of iterations = 12.8

     total cpu time spent up to now is      132.1 secs

     End of band structure calculation

     Number of k-points >= 100: set verbosity='high' to print the bands.

     highest occupied level (ev):     6.1106

     Writing config to output data dir /fastscratch/tsievers/QE_TMP_DIR/_ph0/silicon_ph_bench_nd_16_n_procs_36_1.save/

     default                                                                    

     bravais-lattice index     =            2
     lattice parameter (alat)  =      10.1899  a.u.
     unit-cell volume          =     264.5151 (a.u.)^3
     number of atoms/cell      =            2
     number of atomic types    =            1
     kinetic-energy cut-off    =      70.0000  Ry
     charge density cut-off    =     280.0000  Ry
     convergence threshold     =      1.0E-15
     beta                      =       0.7000
     number of iterations used =            4
     Exchange-correlation= PW
                           (   1   4   0   0   0   0   0)


     celldm(1)=   10.18990  celldm(2)=    0.00000  celldm(3)=    0.00000
     celldm(4)=    0.00000  celldm(5)=    0.00000  celldm(6)=    0.00000

     crystal axes: (cart. coord. in units of alat)
               a(1) = ( -0.5000  0.0000  0.5000 )  
               a(2) = (  0.0000  0.5000  0.5000 )  
               a(3) = ( -0.5000  0.5000  0.0000 )  

     reciprocal axes: (cart. coord. in units 2 pi/alat)
               b(1) = ( -1.0000 -1.0000  1.0000 )  
               b(2) = (  1.0000  1.0000  1.0000 )  
               b(3) = ( -1.0000  1.0000 -1.0000 )  


     Atoms inside the unit cell: 

     Cartesian axes

     site n.  atom      mass           positions (alat units)
        1     Si  28.0855   tau(    1) = (    0.00000    0.00000    0.00000  )
        2     Si  28.0855   tau(    2) = (   -0.25000    0.25000    0.25000  )

     Computing dynamical matrix for 
                    q = (  -0.1666667   0.5000000  -0.1666667 )
 
[...]
      thresh= 1.000E-02 alpha_mix =  0.700 |ddv_scf|^2 =  1.661E-06

      iter #   2 total cpu time :  5995.7 secs   av.it.:  11.3
      thresh= 1.289E-04 alpha_mix =  0.700 |ddv_scf|^2 =  2.106E-06

      iter #   3 total cpu time :  6009.0 secs   av.it.:  10.5
      thresh= 1.451E-04 alpha_mix =  0.700 |ddv_scf|^2 =  2.411E-08

      iter #   4 total cpu time :  6022.0 secs   av.it.:  10.8
      thresh= 1.553E-05 alpha_mix =  0.700 |ddv_scf|^2 =  1.212E-10

      iter #   5 total cpu time :  6035.4 secs   av.it.:  11.0
      thresh= 1.101E-06 alpha_mix =  0.700 |ddv_scf|^2 =  3.075E-12

      iter #   6 total cpu time :  6051.7 secs   av.it.:  11.2
      thresh= 1.753E-07 alpha_mix =  0.700 |ddv_scf|^2 =  1.806E-14

      iter #   7 total cpu time :  6066.0 secs   av.it.:  11.0
      thresh= 1.344E-08 alpha_mix =  0.700 |ddv_scf|^2 =  1.997E-15

      iter #   8 total cpu time :  6079.3 secs   av.it.:  11.1
      thresh= 4.468E-09 alpha_mix =  0.700 |ddv_scf|^2 =  5.623E-17

     End of self-consistent calculation

     Convergence has been achieved 


     Representation #   6 mode #   6

     Self-consistent Calculation

      iter #   1 total cpu time :  6088.0 secs   av.it.:   6.3
      thresh= 1.000E-02 alpha_mix =  0.700 |ddv_scf|^2 =  7.806E-07

      iter #   2 total cpu time :  6102.2 secs   av.it.:  11.2
      thresh= 8.835E-05 alpha_mix =  0.700 |ddv_scf|^2 =  8.561E-07

      iter #   3 total cpu time :  6115.0 secs   av.it.:  10.5
      thresh= 9.252E-05 alpha_mix =  0.700 |ddv_scf|^2 =  2.096E-08

      iter #   4 total cpu time :  6128.0 secs   av.it.:  10.7
      thresh= 1.448E-05 alpha_mix =  0.700 |ddv_scf|^2 =  6.838E-11

      iter #   5 total cpu time :  6141.2 secs   av.it.:  11.0
      thresh= 8.269E-07 alpha_mix =  0.700 |ddv_scf|^2 =  1.287E-12

      iter #   6 total cpu time :  6154.2 secs   av.it.:  11.1
      thresh= 1.135E-07 alpha_mix =  0.700 |ddv_scf|^2 =  6.022E-15

      iter #   7 total cpu time :  6169.0 secs   av.it.:  11.1
      thresh= 7.760E-09 alpha_mix =  0.700 |ddv_scf|^2 =  3.492E-16

     End of self-consistent calculation

     Convergence has been achieved 
 
     Number of q in the star =   24
     List of q in the star:
          1   0.500000000  -0.166666667   0.833333333
          2   0.833333333   0.166666667   0.500000000
          3   0.500000000   0.166666667   0.833333333
          4  -0.833333333  -0.166666667   0.500000000
          5  -0.833333333  -0.166666667  -0.500000000
          6  -0.500000000  -0.166666667  -0.833333333
          7   0.833333333  -0.166666667   0.500000000
          8  -0.500000000  -0.166666667   0.833333333
          9  -0.833333333   0.166666667   0.500000000
         10   0.833333333   0.166666667  -0.500000000
         11   0.833333333  -0.166666667  -0.500000000
         12   0.500000000   0.166666667  -0.833333333
         13  -0.500000000   0.166666667   0.833333333
         14  -0.500000000   0.166666667  -0.833333333
         15  -0.833333333   0.166666667  -0.500000000
         16   0.833333333  -0.500000000   0.166666667
         17   0.833333333   0.500000000  -0.166666667
         18  -0.833333333  -0.500000000  -0.166666667
         19  -0.833333333   0.500000000   0.166666667
         20   0.166666667  -0.500000000   0.833333333
         21  -0.166666667   0.500000000   0.833333333
         22   0.166666667   0.500000000  -0.833333333
         23  -0.166666667  -0.500000000  -0.833333333
         24  -0.500000000   0.833333333   0.166666667

     Diagonalizing the dynamical matrix

     q = (    0.500000000  -0.166666667   0.833333333 ) 

 **************************************************************************
     freq (    1) =       5.052005 [THz] =     168.516762 [cm-1]
     freq (    2) =       6.066394 [THz] =     202.353135 [cm-1]
     freq (    3) =       9.812850 [THz] =     327.321435 [cm-1]
     freq (    4) =      11.453205 [THz] =     382.037789 [cm-1]
     freq (    5) =      14.042031 [THz] =     468.391737 [cm-1]
     freq (    6) =      14.270801 [THz] =     476.022694 [cm-1]
 **************************************************************************

     Calculation of q =   -0.3333333  -1.0000000   0.0000000
 
     Parallelization info
     --------------------
     sticks:   dense  smooth     PW     G-vecs:    dense   smooth      PW
     Min          27      27      9                  578      578     117
     Max          28      28     10                  581      581     121
     Sum        1003    1003    349                20875    20875    4279
 
     Using Slab Decomposition
 

     Title: 
     default                                                                    


     bravais-lattice index     =            2
     lattice parameter (alat)  =      10.1899  a.u.
     unit-cell volume          =     264.5151 (a.u.)^3
     number of atoms/cell      =            2
     number of atomic types    =            1
     number of electrons       =         8.00
     number of Kohn-Sham states=            4
     kinetic-energy cutoff     =      70.0000  Ry
     charge density cutoff     =     280.0000  Ry
     Exchange-correlation= PW
                           (   1   4   0   0   0   0   0)

     celldm(1)=  10.189905  celldm(2)=   0.000000  celldm(3)=   0.000000
     celldm(4)=   0.000000  celldm(5)=   0.000000  celldm(6)=   0.000000

     crystal axes: (cart. coord. in units of alat)
               a(1) = (  -0.500000   0.000000   0.500000 )  
               a(2) = (   0.000000   0.500000   0.500000 )  
               a(3) = (  -0.500000   0.500000   0.000000 )  

     reciprocal axes: (cart. coord. in units 2 pi/alat)
               b(1) = ( -1.000000 -1.000000  1.000000 )  
               b(2) = (  1.000000  1.000000  1.000000 )  
               b(3) = ( -1.000000  1.000000 -1.000000 )  


     PseudoPot. # 1 for Si read from file:
     ./pseudos/Si.nc.UPF
     MD5 check sum: 9e2d726316af3d4752eea8ab0afbb951
     Pseudo is Norm-conserving + core correction, Zval =  4.0
     Generated using ONCVPSP code by D. R. Hamann
     Using radial grid of 1510 points,  6 beta functions with: 
                l(1) =   0
                l(2) =   0
                l(3) =   1
                l(4) =   1
                l(5) =   2
                l(6) =   2

     atomic species   valence    mass     pseudopotential
        Si             4.00    28.08550     Si( 1.00)

     48 Sym. Ops., with inversion, found



   Cartesian axes

     site n.     atom                  positions (alat units)
         1           Si  tau(   1) = (   0.0000000   0.0000000   0.0000000  )
         2           Si  tau(   2) = (  -0.2500000   0.2500000   0.2500000  )

     number of k points=   432

     Number of k-points >= 100: set verbosity='high' to print them.

     Dense  grid:    20875 G-vectors     FFT dimensions: (  40,  40,  40)

     Estimated max dynamical RAM per process >       1.77 MB

     Estimated total dynamical RAM >      63.55 MB

     The potential is recalculated from file :
     /fastscratch/tsievers/QE_TMP_DIR/_ph0/silicon_ph_bench_nd_16_n_procs_36_1.save/charge-density

     Starting wfcs are    8 atomic wfcs

     Band Structure Calculation
     Davidson diagonalization with overlap

     ethr =  1.25E-10,  avg # of iterations = 12.8

     total cpu time spent up to now is      525.5 secs

     End of band structure calculation

     Number of k-points >= 100: set verbosity='high' to print the bands.

     highest occupied level (ev):     6.1106

     Writing config to output data dir /fastscratch/tsievers/QE_TMP_DIR/_ph0/silicon_ph_bench_nd_16_n_procs_36_1.save/

     default                                                                    

     bravais-lattice index     =            2
     lattice parameter (alat)  =      10.1899  a.u.
     unit-cell volume          =     264.5151 (a.u.)^3
     number of atoms/cell      =            2
     number of atomic types    =            1
     kinetic-energy cut-off    =      70.0000  Ry
     charge density cut-off    =     280.0000  Ry
     convergence threshold     =      1.0E-15
     beta                      =       0.7000
     number of iterations used =            4
     Exchange-correlation= PW
                           (   1   4   0   0   0   0   0)


     celldm(1)=   10.18990  celldm(2)=    0.00000  celldm(3)=    0.00000
     celldm(4)=    0.00000  celldm(5)=    0.00000  celldm(6)=    0.00000

     crystal axes: (cart. coord. in units of alat)
               a(1) = ( -0.5000  0.0000  0.5000 )  
               a(2) = (  0.0000  0.5000  0.5000 )  
               a(3) = ( -0.5000  0.5000  0.0000 )  

     reciprocal axes: (cart. coord. in units 2 pi/alat)
               b(1) = ( -1.0000 -1.0000  1.0000 )  
               b(2) = (  1.0000  1.0000  1.0000 )  
               b(3) = ( -1.0000  1.0000 -1.0000 )  


     Atoms inside the unit cell: 

     Cartesian axes

     site n.  atom      mass           positions (alat units)
        1     Si  28.0855   tau(    1) = (    0.00000    0.00000    0.00000  )
        2     Si  28.0855   tau(    2) = (   -0.25000    0.25000    0.25000  )

     Computing dynamical matrix for 
                    q = (  -0.3333333  -1.0000000   0.0000000 )
 
      4 Sym.Ops. (no q -> -q+G )


     G cutoff =  736.4420  (    581 G-vectors)     FFT grid: ( 40, 40, 40)
     number of k points=   432

     PseudoPot. # 1 for Si read from file:
     ./pseudos/Si.nc.UPF
     MD5 check sum: 9e2d726316af3d4752eea8ab0afbb951
     Pseudo is Norm-conserving + core correction, Zval =  4.0
     Generated using ONCVPSP code by D. R. Hamann
     Using radial grid of 1510 points,  6 beta functions with: 
                l(1) =   0
                l(2) =   0
                l(3) =   1
                l(4) =   1
                l(5) =   2
                l(6) =   2


     Atomic displacements:
     There are    3 irreducible representations

     Representation     1      2 modes -  To be done

     Representation     2      2 modes -  To be done

     Representation     3      2 modes -  To be done



     Alpha used in Ewald sum =   2.8000
     PHONON       :      1h39m CPU      1h43m WALL



     Representation #   1 modes #   1   2

     Self-consistent Calculation

      iter #   1 total cpu time :  6209.1 secs   av.it.:   6.2
      thresh= 1.000E-02 alpha_mix =  0.700 |ddv_scf|^2 =  1.556E-07

      iter #   2 total cpu time :  6224.5 secs   av.it.:  12.0
      thresh= 3.945E-05 alpha_mix =  0.700 |ddv_scf|^2 =  1.735E-07

      iter #   3 total cpu time :  6237.9 secs   av.it.:  11.3
      thresh= 4.166E-05 alpha_mix =  0.700 |ddv_scf|^2 =  1.413E-09

      iter #   4 total cpu time :  6251.2 secs   av.it.:  11.4
      thresh= 3.759E-06 alpha_mix =  0.700 |ddv_scf|^2 =  2.868E-11

      iter #   5 total cpu time :  6266.5 secs   av.it.:  11.7
      thresh= 5.355E-07 alpha_mix =  0.700 |ddv_scf|^2 =  3.311E-13

      iter #   6 total cpu time :  6280.6 secs   av.it.:  11.9
      thresh= 5.754E-08 alpha_mix =  0.700 |ddv_scf|^2 =  6.633E-15

      iter #   7 total cpu time :  6294.6 secs   av.it.:  11.9
      thresh= 8.144E-09 alpha_mix =  0.700 |ddv_scf|^2 =  3.440E-16

     End of self-consistent calculation

     Convergence has been achieved 


     Representation #   2 modes #   3   4

     Self-consistent Calculation

      iter #   1 total cpu time :  6303.8 secs   av.it.:   6.4
      thresh= 1.000E-02 alpha_mix =  0.700 |ddv_scf|^2 =  2.822E-07

      iter #   2 total cpu time :  6321.9 secs   av.it.:  12.0
      thresh= 5.312E-05 alpha_mix =  0.700 |ddv_scf|^2 =  3.164E-07

      iter #   3 total cpu time :  6335.3 secs   av.it.:  11.3
      thresh= 5.625E-05 alpha_mix =  0.700 |ddv_scf|^2 =  2.734E-09

      iter #   4 total cpu time :  6349.5 secs   av.it.:  11.4
      thresh= 5.229E-06 alpha_mix =  0.700 |ddv_scf|^2 =  2.853E-11

      iter #   5 total cpu time :  6363.0 secs   av.it.:  11.7
      thresh= 5.341E-07 alpha_mix =  0.700 |ddv_scf|^2 =  6.503E-13

      iter #   6 total cpu time :  6377.4 secs   av.it.:  11.9
      thresh= 8.064E-08 alpha_mix =  0.700 |ddv_scf|^2 =  5.160E-15

      iter #   7 total cpu time :  6391.1 secs   av.it.:  11.9
      thresh= 7.183E-09 alpha_mix =  0.700 |ddv_scf|^2 =  3.238E-16

     End of self-consistent calculation

     Convergence has been achieved 


     Representation #   3 modes #   5   6

     Self-consistent Calculation

      iter #   1 total cpu time :  6399.9 secs   av.it.:   6.5
      thresh= 1.000E-02 alpha_mix =  0.700 |ddv_scf|^2 =  3.737E-07

      iter #   2 total cpu time :  6416.1 secs   av.it.:  11.9
      thresh= 6.113E-05 alpha_mix =  0.700 |ddv_scf|^2 =  4.102E-07

      iter #   3 total cpu time :  6429.2 secs   av.it.:  11.2
      thresh= 6.405E-05 alpha_mix =  0.700 |ddv_scf|^2 =  3.310E-09

      iter #   4 total cpu time :  6444.2 secs   av.it.:  11.4
      thresh= 5.753E-06 alpha_mix =  0.700 |ddv_scf|^2 =  2.247E-11

      iter #   5 total cpu time :  6459.2 secs   av.it.:  11.7
      thresh= 4.740E-07 alpha_mix =  0.700 |ddv_scf|^2 =  2.132E-13

      iter #   6 total cpu time :  6473.3 secs   av.it.:  11.8
      thresh= 4.617E-08 alpha_mix =  0.700 |ddv_scf|^2 =  3.739E-15

      iter #   7 total cpu time :  6486.8 secs   av.it.:  11.7
      thresh= 6.115E-09 alpha_mix =  0.700 |ddv_scf|^2 =  2.248E-16

     End of self-consistent calculation

     Convergence has been achieved 
 
     Number of q in the star =   12
     List of q in the star:
          1  -0.333333333  -1.000000000   0.000000000
          2   0.000000000  -1.000000000  -0.333333333
          3   0.000000000  -1.000000000   0.333333333
          4   0.333333333  -1.000000000   0.000000000
          5  -1.000000000   0.000000000  -0.333333333
          6   1.000000000   0.000000000   0.333333333
          7   0.000000000   0.333333333   1.000000000
          8   0.000000000  -0.333333333  -1.000000000
          9  -1.000000000  -0.333333333   0.000000000
         10   1.000000000   0.333333333   0.000000000
         11  -0.333333333   0.000000000   1.000000000
         12   0.333333333   0.000000000   1.000000000

     Diagonalizing the dynamical matrix

     q = (   -0.333333333  -1.000000000   0.000000000 ) 

 **************************************************************************
     freq (    1) =       5.494063 [THz] =     183.262223 [cm-1]
     freq (    2) =       5.494063 [THz] =     183.262223 [cm-1]
     freq (    3) =      10.966363 [THz] =     365.798485 [cm-1]
     freq (    4) =      10.966363 [THz] =     365.798485 [cm-1]
     freq (    5) =      14.002436 [THz] =     467.070996 [cm-1]
     freq (    6) =      14.002436 [THz] =     467.070996 [cm-1]
 **************************************************************************
 
     init_run     :      0.22s CPU      0.35s WALL (      15 calls)
     electrons    :    507.27s CPU    517.63s WALL (      15 calls)

     Called by init_run:
     wfcinit      :      0.00s CPU      0.07s WALL (      15 calls)
     potinit      :      0.03s CPU      0.04s WALL (      15 calls)
     hinit0       :      0.10s CPU      0.10s WALL (      15 calls)

     Called by electrons:
     c_bands      :    507.26s CPU    517.63s WALL (      15 calls)
     v_of_rho     :      0.01s CPU      0.01s WALL (      16 calls)

     Called by c_bands:
     init_us_2    :      8.28s CPU      8.49s WALL (  248089 calls)
     init_us_2:cp :      7.67s CPU      7.93s WALL (  248089 calls)
     cegterg      :    450.25s CPU    455.49s WALL (    8380 calls)

     Called by *egterg:
     cdiaghg      :    183.02s CPU    185.18s WALL (  115750 calls)
     h_psi        :   4686.80s CPU   4766.83s WALL ( 2479760 calls)
     g_psi        :      0.35s CPU      0.36s WALL (  107370 calls)

     Called by h_psi:
     h_psi:calbec :     96.41s CPU     97.90s WALL ( 2479760 calls)
     vloc_psi     :   4529.02s CPU   4606.55s WALL ( 2479760 calls)
     add_vuspsi   :     40.57s CPU     41.75s WALL ( 2479760 calls)

     General routines
     calbec       :    162.55s CPU    166.74s WALL ( 4978886 calls)
     fft          :      1.29s CPU      1.33s WALL (    3909 calls)
     ffts         :      8.19s CPU      8.34s WALL (   25932 calls)
     fftw         :   5403.95s CPU   5498.07s WALL (21092746 calls)
     davcio       :     10.03s CPU     63.31s WALL ( 1045010 calls)
 
     Parallel routines
 
     PHONON       :      1h44m CPU      1h48m WALL

     INITIALIZATION: 
     phq_setup    :      0.03s CPU      0.24s WALL (      16 calls)
     phq_init     :      3.73s CPU      4.03s WALL (      16 calls)
 
     phq_init     :      3.73s CPU      4.03s WALL (      16 calls)
     set_drhoc    :      0.26s CPU      0.28s WALL (      48 calls)
     init_vloc    :      0.03s CPU      0.03s WALL (      16 calls)
     init_us_1    :      0.03s CPU      0.03s WALL (      16 calls)
     init_us_2    :      8.28s CPU      8.49s WALL (  248089 calls)
 
     DYNAMICAL MATRIX:
     dynmat0      :      2.64s CPU      2.87s WALL (      16 calls)
     phqscf       :   5709.77s CPU   5927.05s WALL (      16 calls)
     dynmatrix    :      0.08s CPU      0.61s WALL (      16 calls)
 
     phqscf       :   5709.77s CPU   5927.05s WALL (      16 calls)
     solve_linter :   5704.55s CPU   5917.78s WALL (      76 calls)
     drhodv       :      5.13s CPU      5.52s WALL (      76 calls)
 
     dynmat0      :      2.64s CPU      2.87s WALL (      16 calls)
     dynmat_us    :      2.43s CPU      2.47s WALL (      16 calls)
     d2ionq       :      0.00s CPU      0.00s WALL (      16 calls)
     dynmatcc     :      0.19s CPU      0.19s WALL (      16 calls)
 
     dynmat_us    :      2.43s CPU      2.47s WALL (      16 calls)
 
     phqscf       :   5709.77s CPU   5927.05s WALL (      16 calls)
     solve_linter :   5704.55s CPU   5917.78s WALL (      76 calls)
 
     solve_linter :   5704.55s CPU   5917.78s WALL (      76 calls)
     dvqpsi_us    :     61.48s CPU     62.56s WALL (   25476 calls)
     sth_kernel   :   5611.90s CPU   5758.57s WALL (     579 calls)
     apply_dpot_b :    353.60s CPU    361.24s WALL (  174509 calls)
     ortho        :      6.52s CPU      6.66s WALL (  199985 calls)
     cgsolve      :   4664.47s CPU   4745.26s WALL (  199985 calls)
     incdrhoscf   :    569.84s CPU    579.12s WALL (  199901 calls)
     dv_of_drho   :      0.66s CPU      0.66s WALL (     705 calls)
     mix_pot      :      3.40s CPU     41.24s WALL (     579 calls)
     psymdvscf    :      8.35s CPU      8.44s WALL (     574 calls)
 
     dvqpsi_us    :     61.48s CPU     62.56s WALL (   25476 calls)
     dvqpsi_us_on :      2.99s CPU      3.05s WALL (   25476 calls)
 
     cgsolve      :   4664.47s CPU   4745.26s WALL (  199985 calls)
     ch_psi       :   4594.67s CPU   4673.32s WALL ( 2355630 calls)
 
     ch_psi       :   4594.67s CPU   4673.32s WALL ( 2355630 calls)
     h_psi        :   4686.80s CPU   4766.83s WALL ( 2479760 calls)
     last         :    134.70s CPU    137.05s WALL ( 2355630 calls)
 
     h_psi        :   4686.80s CPU   4766.83s WALL ( 2479760 calls)
     add_vuspsi   :     40.57s CPU     41.75s WALL ( 2479760 calls)
 
     incdrhoscf   :    569.84s CPU    579.12s WALL (  199901 calls)
 
 
      General routines
     calbec       :    162.55s CPU    166.74s WALL ( 4978886 calls)
     fft          :      1.29s CPU      1.33s WALL (    3909 calls)
     ffts         :      8.19s CPU      8.34s WALL (   25932 calls)
     fftw         :   5403.95s CPU   5498.07s WALL (21092746 calls)
     davcio       :     10.03s CPU     63.31s WALL ( 1045010 calls)
     write_rec    :      0.87s CPU     31.94s WALL (     655 calls)
 
 
     PHONON       :      1h44m CPU      1h48m WALL

 
   This run was terminated on:  13:48: 3  27Jun2022            

=------------------------------------------------------------------------------=
   JOB DONE.
=------------------------------------------------------------------------------=
real 6493.62
user 125220.17
sys 2084.96
