Module for intel-oneAPI 2021.4 loaded.
 
:: initializing oneAPI environment ...
   3071201: BASH_VERSION = 4.4.20(1)-release
:: advisor -- latest
:: ccl -- latest
:: clck -- latest
:: compiler -- latest
:: dal -- latest
:: debugger -- latest
:: dev-utilities -- latest
:: dnnl -- latest
:: dpcpp-ct -- latest
:: dpl -- latest
:: inspector -- latest
:: intelpython -- latest
:: ipp -- latest
:: ippcp -- latest
:: ipp -- latest
:: itac -- latest
:: LPOT -- latest
:: mkl -- latest
:: modelzoo -- latest
:: mpi -- latest
:: pytorch -- latest
:: tbb -- latest
:: tensorflow -- latest
:: vpl -- latest
:: vtune -- latest
:: oneAPI environment initialized ::
 

     Program PWSCF v.7.0 starts on 27Jun2022 at 18:58:50 

     This program is part of the open-source Quantum ESPRESSO suite
     for quantum simulation of materials; please cite
         "P. Giannozzi et al., J. Phys.:Condens. Matter 21 395502 (2009);
         "P. Giannozzi et al., J. Phys.:Condens. Matter 29 465901 (2017);
         "P. Giannozzi et al., J. Chem. Phys. 152 154105 (2020);
          URL http://www.quantum-espresso.org", 
     in publications or presentations arising from this work. More details at
     http://www.quantum-espresso.org/quote

     Parallel version (MPI), running on    28 processors

     MPI processes distributed on     2 nodes
     R & G space division:  proc/nbgrp/npool/nimage =      28
     59499 MiB available memory on the printing compute node when the environment starts
 
     Reading input from in_files/silicon_ph_bench_nd_16_n_procs_28_1.scf

     Current dimensions of program PWSCF are:
     Max number of different atomic species (ntypx) = 10
     Max number of k-points (npk) =  40000
     Max angular momentum in pseudopotentials (lmaxx) =  4

     Subspace diagonalization in iterative solution of the eigenvalue problem:
     one sub-group per band group will be used
     scalapack distributed-memory algorithm (size of sub-group:  4*  4 procs)

 
     Parallelization info
     --------------------
     sticks:   dense  smooth     PW     G-vecs:    dense   smooth      PW
     Min          35      35     10                  744      744     122
     Max          36      36     11                  747      747     126
     Sum        1003    1003    301                20875    20875    3479
 
     Using Slab Decomposition
 


     bravais-lattice index     =            2
     lattice parameter (alat)  =      10.1899  a.u.
     unit-cell volume          =     264.5151 (a.u.)^3
     number of atoms/cell      =            2
     number of atomic types    =            1
     number of electrons       =         8.00
     number of Kohn-Sham states=            4
     kinetic-energy cutoff     =      70.0000  Ry
     charge density cutoff     =     280.0000  Ry
     scf convergence threshold =      1.0E-10
     mixing beta               =       0.7000
     number of iterations used =            8  plain     mixing
     Exchange-correlation= SLA  PW   NOGX NOGC
                           (   1   4   0   0   0   0   0)

     celldm(1)=  10.189905  celldm(2)=   0.000000  celldm(3)=   0.000000
     celldm(4)=   0.000000  celldm(5)=   0.000000  celldm(6)=   0.000000

     crystal axes: (cart. coord. in units of alat)
               a(1) = (  -0.500000   0.000000   0.500000 )  
               a(2) = (   0.000000   0.500000   0.500000 )  
               a(3) = (  -0.500000   0.500000   0.000000 )  

     reciprocal axes: (cart. coord. in units 2 pi/alat)
               b(1) = ( -1.000000 -1.000000  1.000000 )  
               b(2) = (  1.000000  1.000000  1.000000 )  
               b(3) = ( -1.000000  1.000000 -1.000000 )  


     PseudoPot. # 1 for Si read from file:
     ./pseudos/Si.nc.UPF
     MD5 check sum: 9e2d726316af3d4752eea8ab0afbb951
     Pseudo is Norm-conserving + core correction, Zval =  4.0
     Generated using ONCVPSP code by D. R. Hamann
     Using radial grid of 1510 points,  6 beta functions with: 
                l(1) =   0
                l(2) =   0
                l(3) =   1
                l(4) =   1
                l(5) =   2
                l(6) =   2

     atomic species   valence    mass     pseudopotential
        Si             4.00    28.08550     Si( 1.00)

     48 Sym. Ops., with inversion, found (24 have fractional translation)



   Cartesian axes

     site n.     atom                  positions (alat units)
         1           Si  tau(   1) = (   0.0000000   0.0000000   0.0000000  )
         2           Si  tau(   2) = (  -0.2500000   0.2500000   0.2500000  )

     number of k points=    28
                       cart. coord. in units 2pi/alat
        k(    1) = (  -0.0833333   0.0833333   0.0833333), wk =   0.0185185
        k(    2) = (  -0.2500000   0.2500000  -0.0833333), wk =   0.0555556
        k(    3) = (  -0.4166667   0.4166667  -0.2500000), wk =   0.0555556
        k(    4) = (   0.4166667  -0.4166667   0.5833333), wk =   0.0555556
        k(    5) = (   0.2500000  -0.2500000   0.4166667), wk =   0.0555556
        k(    6) = (   0.0833333  -0.0833333   0.2500000), wk =   0.0555556
        k(    7) = (  -0.0833333   0.4166667   0.0833333), wk =   0.0555556
        k(    8) = (  -0.2500000   0.5833333  -0.0833333), wk =   0.1111111
        k(    9) = (   0.5833333  -0.2500000   0.7500000), wk =   0.1111111
        k(   10) = (   0.4166667  -0.0833333   0.5833333), wk =   0.1111111
        k(   11) = (   0.2500000   0.0833333   0.4166667), wk =   0.1111111
        k(   12) = (  -0.0833333   0.7500000   0.0833333), wk =   0.0555556
        k(   13) = (   0.7500000  -0.0833333   0.9166667), wk =   0.1111111
        k(   14) = (   0.5833333   0.0833333   0.7500000), wk =   0.1111111
        k(   15) = (   0.4166667   0.2500000   0.5833333), wk =   0.1111111
        k(   16) = (  -0.0833333  -0.9166667   0.0833333), wk =   0.0555556
        k(   17) = (  -0.2500000  -0.7500000  -0.0833333), wk =   0.1111111
        k(   18) = (  -0.0833333  -0.5833333   0.0833333), wk =   0.0555556
        k(   19) = (  -0.2500000   0.2500000   0.2500000), wk =   0.0185185
        k(   20) = (  -0.4166667   0.4166667   0.0833333), wk =   0.0555556
        k(   21) = (   0.4166667  -0.4166667   0.9166667), wk =   0.0555556
        k(   22) = (   0.2500000  -0.2500000   0.7500000), wk =   0.0555556
        k(   23) = (  -0.2500000   0.5833333   0.2500000), wk =   0.0555556
        k(   24) = (   0.5833333  -0.2500000   1.0833333), wk =   0.1111111
        k(   25) = (   0.4166667  -0.0833333   0.9166667), wk =   0.1111111
        k(   26) = (  -0.2500000  -1.0833333   0.2500000), wk =   0.0555556
        k(   27) = (  -0.4166667   0.4166667   0.4166667), wk =   0.0185185
        k(   28) = (   0.4166667  -0.4166667   1.2500000), wk =   0.0555556

     Dense  grid:    20875 G-vectors     FFT dimensions: (  40,  40,  40)

     Estimated max dynamical RAM per process >       2.11 MB

     Estimated total dynamical RAM >      59.21 MB

     Initial potential from superposition of free atoms

     starting charge       7.9989, renormalised to       8.0000
     Starting wfcs are    8 randomized atomic wfcs

     total cpu time spent up to now is        0.3 secs

     Self-consistent Calculation

     iteration #  1     ecut=    70.00 Ry     beta= 0.70
     Davidson diagonalization with overlap
     ethr =  1.00E-02,  avg # of iterations =  2.0

     Threshold (ethr) on eigenvalues was too large:
     Diagonalizing with lowered threshold

     Davidson diagonalization with overlap
     ethr =  6.12E-04,  avg # of iterations =  2.0

     total cpu time spent up to now is        0.8 secs

     total energy              =     -17.04762302 Ry
     estimated scf accuracy    <       0.05797262 Ry

     iteration #  2     ecut=    70.00 Ry     beta= 0.70
     Davidson diagonalization with overlap
     ethr =  7.25E-04,  avg # of iterations =  1.0

     total cpu time spent up to now is        0.9 secs

     total energy              =     -17.04995156 Ry
     estimated scf accuracy    <       0.00249782 Ry

     iteration #  3     ecut=    70.00 Ry     beta= 0.70
     Davidson diagonalization with overlap
     ethr =  3.12E-05,  avg # of iterations =  3.0

     total cpu time spent up to now is        1.2 secs

     total energy              =     -17.05082808 Ry
     estimated scf accuracy    <       0.00009833 Ry

     iteration #  4     ecut=    70.00 Ry     beta= 0.70
     Davidson diagonalization with overlap
     ethr =  1.23E-06,  avg # of iterations =  4.4

     total cpu time spent up to now is        1.5 secs

     total energy              =     -17.05089836 Ry
     estimated scf accuracy    <       0.00000362 Ry

     iteration #  5     ecut=    70.00 Ry     beta= 0.70
     Davidson diagonalization with overlap
     ethr =  4.52E-08,  avg # of iterations =  4.1

     total cpu time spent up to now is        1.9 secs

     total energy              =     -17.05090098 Ry
     estimated scf accuracy    <       0.00000013 Ry

     iteration #  6     ecut=    70.00 Ry     beta= 0.70
     Davidson diagonalization with overlap
     ethr =  1.60E-09,  avg # of iterations =  4.0

     total cpu time spent up to now is        2.2 secs

     total energy              =     -17.05090106 Ry
     estimated scf accuracy    <       0.00000001 Ry

     iteration #  7     ecut=    70.00 Ry     beta= 0.70
     Davidson diagonalization with overlap
     ethr =  1.57E-10,  avg # of iterations =  3.3

     total cpu time spent up to now is        2.5 secs

     total energy              =     -17.05090107 Ry
     estimated scf accuracy    <          2.2E-10 Ry

     iteration #  8     ecut=    70.00 Ry     beta= 0.70
     Davidson diagonalization with overlap
     ethr =  2.81E-12,  avg # of iterations =  5.0

     total cpu time spent up to now is        2.8 secs

     End of self-consistent calculation

          k =-0.0833 0.0833 0.0833 (  2667 PWs)   bands (ev):

    -5.7561   5.3866   6.1106   6.1106

          k =-0.2500 0.2500-0.0833 (  2621 PWs)   bands (ev):

    -5.2692   3.2786   4.8359   5.9020

          k =-0.4167 0.4167-0.2500 (  2618 PWs)   bands (ev):

    -4.1491   0.4558   4.3704   5.2525

          k = 0.4167-0.4167 0.5833 (  2604 PWs)   bands (ev):

    -3.4239  -0.7236   4.4440   4.8611

          k = 0.2500-0.2500 0.4167 (  2618 PWs)   bands (ev):

    -4.5726   1.3222   4.9163   4.9542

          k = 0.0833-0.0833 0.2500 (  2643 PWs)   bands (ev):

    -5.5104   4.3092   5.4446   5.6431

          k =-0.0833 0.4167 0.0833 (  2627 PWs)   bands (ev):

    -5.0231   3.1094   4.6844   4.6977

          k =-0.2500 0.5833-0.0833 (  2613 PWs)   bands (ev):

    -4.0918   1.2428   3.3199   4.3008

          k = 0.5833-0.2500 0.7500 (  2616 PWs)   bands (ev):

    -2.9383  -0.5645   2.7090   4.0651

          k = 0.4167-0.0833 0.5833 (  2617 PWs)   bands (ev):

    -3.6856   0.5301   2.6549   4.5685

          k = 0.2500 0.0833 0.4167 (  2624 PWs)   bands (ev):

    -4.7922   2.2460   4.0374   5.2604

          k =-0.0833 0.7500 0.0833 (  2617 PWs)   bands (ev):

    -3.3665   0.4197   3.2861   3.6484

          k = 0.7500-0.0833 0.9167 (  2608 PWs)   bands (ev):

    -2.1400  -0.9430   2.4039   3.2176

          k = 0.5833 0.0833 0.7500 (  2608 PWs)   bands (ev):

    -2.5100  -0.6178   1.9048   3.7798

          k = 0.4167 0.2500 0.5833 (  2622 PWs)   bands (ev):

    -3.5664  -0.1968   3.6416   4.6730

          k =-0.0833-0.9167 0.0833 (  2604 PWs)   bands (ev):

    -2.2385  -0.9535   3.0091   3.4290

          k =-0.2500-0.7500-0.0833 (  2615 PWs)   bands (ev):

    -3.1914   0.1893   2.7413   3.5674

          k =-0.0833-0.5833 0.0833 (  2620 PWs)   bands (ev):

    -4.3033   1.8031   3.8479   4.0788

          k =-0.2500 0.2500 0.2500 (  2632 PWs)   bands (ev):

    -5.0343   2.2730   5.4857   5.4857

          k =-0.4167 0.4167 0.0833 (  2620 PWs)   bands (ev):

    -4.3392   1.3430   3.2813   5.3165

          k = 0.4167-0.4167 0.9167 (  2613 PWs)   bands (ev):

    -3.1274  -0.1140   2.1361   4.5076

          k = 0.2500-0.2500 0.7500 (  2618 PWs)   bands (ev):

    -3.0762  -0.1941   2.6355   4.0115

          k =-0.2500 0.5833 0.2500 (  2613 PWs)   bands (ev):

    -3.9042   0.5132   3.7736   4.3933

          k = 0.5833-0.2500 1.0833 (  2619 PWs)   bands (ev):

    -2.8765  -0.2149   2.2381   3.5571

          k = 0.4167-0.0833 0.9167 (  2613 PWs)   bands (ev):

    -2.0245  -0.9506   2.0592   2.8637

          k =-0.2500-1.0833 0.2500 (  2605 PWs)   bands (ev):

    -2.2385  -0.8649   1.9289   3.8127

          k =-0.4167 0.4167 0.4167 (  2602 PWs)   bands (ev):

    -3.8074  -0.3119   5.0941   5.0941

          k = 0.4167-0.4167 1.2500 (  2605 PWs)   bands (ev):

    -3.1840  -0.6106   3.2018   4.6388

     highest occupied level (ev):     6.1106

!    total energy              =     -17.05090107 Ry
     estimated scf accuracy    <          1.0E-13 Ry

     The total energy is the sum of the following terms:
     one-electron contribution =       5.01080643 Ry
     hartree contribution      =       1.07710394 Ry
     xc contribution           =      -6.22231016 Ry
     ewald contribution        =     -16.91650128 Ry

     convergence has been achieved in   8 iterations

     Forces acting on atoms (cartesian axes, Ry/au):

     atom    1 type  1   force =     0.00000000    0.00000000    0.00000000
     atom    2 type  1   force =     0.00000000    0.00000000    0.00000000

     Total force =     0.000000     Total SCF correction =     0.000000

     Writing all to output data dir /fastscratch/tsievers/QE_TMP_DIR/silicon_ph_bench_nd_16_n_procs_28_1.save/
 
     init_run     :      0.11s CPU      0.16s WALL (       1 calls)
     electrons    :      2.43s CPU      2.95s WALL (       1 calls)
     forces       :      0.01s CPU      0.01s WALL (       1 calls)

     Called by init_run:
     wfcinit      :      0.09s CPU      0.10s WALL (       1 calls)
     potinit      :      0.00s CPU      0.00s WALL (       1 calls)
     hinit0       :      0.01s CPU      0.04s WALL (       1 calls)

     Called by electrons:
     c_bands      :      2.28s CPU      2.32s WALL (       9 calls)
     sum_band     :      0.15s CPU      0.15s WALL (       9 calls)
     v_of_rho     :      0.00s CPU      0.00s WALL (       9 calls)
     mix_rho      :      0.00s CPU      0.00s WALL (       9 calls)

     Called by c_bands:
     init_us_2    :      0.02s CPU      0.02s WALL (     560 calls)
     init_us_2:cp :      0.02s CPU      0.02s WALL (     560 calls)
     cegterg      :      2.19s CPU      2.23s WALL (     252 calls)

     Called by *egterg:
     cdiaghg      :      0.79s CPU      0.81s WALL (    1033 calls)
     h_psi        :      1.00s CPU      1.03s WALL (    1089 calls)
     g_psi        :      0.00s CPU      0.00s WALL (     809 calls)

     Called by h_psi:
     h_psi:calbec :      0.05s CPU      0.05s WALL (    1089 calls)
     vloc_psi     :      0.92s CPU      0.95s WALL (    1089 calls)
     add_vuspsi   :      0.02s CPU      0.02s WALL (    1089 calls)

     General routines
     calbec       :      0.05s CPU      0.06s WALL (    1201 calls)
     fft          :      0.01s CPU      0.04s WALL (      31 calls)
     ffts         :      0.00s CPU      0.00s WALL (       9 calls)
     fftw         :      1.02s CPU      1.04s WALL (    8174 calls)
 
     Parallel routines
 
     PWSCF        :      2.62s CPU      3.50s WALL

 
   This run was terminated on:  18:58:53  27Jun2022            

=------------------------------------------------------------------------------=
   JOB DONE.
=------------------------------------------------------------------------------=

     Program PHONON v.7.0 starts on 27Jun2022 at 18:58:57 

     This program is part of the open-source Quantum ESPRESSO suite
     for quantum simulation of materials; please cite
         "P. Giannozzi et al., J. Phys.:Condens. Matter 21 395502 (2009);
         "P. Giannozzi et al., J. Phys.:Condens. Matter 29 465901 (2017);
         "P. Giannozzi et al., J. Chem. Phys. 152 154105 (2020);
          URL http://www.quantum-espresso.org", 
     in publications or presentations arising from this work. More details at
     http://www.quantum-espresso.org/quote

     Parallel version (MPI), running on    28 processors

     MPI processes distributed on     2 nodes
     R & G space division:  proc/nbgrp/npool/nimage =      28
     59492 MiB available memory on the printing compute node when the environment starts
 
     Reading input from in_files/silicon_ph_bench_nd_16_n_procs_28_1.ph
      Title line not specified: using 'default'.

     Reading xml data from directory:

     /fastscratch/tsievers/QE_TMP_DIR/silicon_ph_bench_nd_16_n_procs_28_1.save/

     IMPORTANT: XC functional enforced from input :
     Exchange-correlation= PW
                           (   1   4   0   0   0   0   0)
     Any further DFT definition will be discarded
     Please, verify this is what you really want

 
     Parallelization info
     --------------------
     sticks:   dense  smooth     PW     G-vecs:    dense   smooth      PW
     Min          35      35     10                  744      744     122
     Max          36      36     11                  747      747     126
     Sum        1003    1003    301                20875    20875    3479
 
     Using Slab Decomposition
 
     Reading collected, re-writing distributed wavefunctions


     Dynamical matrices for ( 6, 6, 6)  uniform grid of q-points
     (  16 q-points):
       N         xq(1)         xq(2)         xq(3) 
       1   0.000000000   0.000000000   0.000000000
       2  -0.166666667   0.166666667  -0.166666667
       3  -0.333333333   0.333333333  -0.333333333
       4   0.500000000  -0.500000000   0.500000000
       5   0.000000000   0.333333333   0.000000000
       6  -0.166666667   0.500000000  -0.166666667
       7   0.666666667  -0.333333333   0.666666667
       8   0.500000000  -0.166666667   0.500000000
       9   0.333333333   0.000000000   0.333333333
      10   0.000000000   0.666666667   0.000000000
      11   0.833333333  -0.166666667   0.833333333
      12   0.666666667  -0.000000000   0.666666667
      13   0.000000000  -1.000000000   0.000000000
      14   0.666666667  -0.333333333   1.000000000
      15   0.500000000  -0.166666667   0.833333333
      16  -0.333333333  -1.000000000   0.000000000

     Calculation of q =    0.0000000   0.0000000   0.0000000

     default                                                                    

     bravais-lattice index     =            2
     lattice parameter (alat)  =      10.1899  a.u.
     unit-cell volume          =     264.5151 (a.u.)^3
     number of atoms/cell      =            2
     number of atomic types    =            1
     kinetic-energy cut-off    =      70.0000  Ry
     charge density cut-off    =     280.0000  Ry
     convergence threshold     =      1.0E-15
     beta                      =       0.7000
     number of iterations used =            4
     Exchange-correlation= PW
                           (   1   4   0   0   0   0   0)


     celldm(1)=   10.18990  celldm(2)=    0.00000  celldm(3)=    0.00000
     celldm(4)=    0.00000  celldm(5)=    0.00000  celldm(6)=    0.00000

     crystal axes: (cart. coord. in units of alat)
               a(1) = ( -0.5000  0.0000  0.5000 )  
               a(2) = (  0.0000  0.5000  0.5000 )  
               a(3) = ( -0.5000  0.5000  0.0000 )  

     reciprocal axes: (cart. coord. in units 2 pi/alat)
               b(1) = ( -1.0000 -1.0000  1.0000 )  
               b(2) = (  1.0000  1.0000  1.0000 )  
               b(3) = ( -1.0000  1.0000 -1.0000 )  


     Atoms inside the unit cell: 

     Cartesian axes

     site n.  atom      mass           positions (alat units)
        1     Si  28.0855   tau(    1) = (    0.00000    0.00000    0.00000  )
        2     Si  28.0855   tau(    2) = (   -0.25000    0.25000    0.25000  )

     Computing dynamical matrix for 
                    q = (   0.0000000   0.0000000   0.0000000 )
 
     49 Sym.Ops. (with q -> -q+G )


     G cutoff =  736.4420  (    747 G-vectors)     FFT grid: ( 40, 40, 40)
     number of k points=    28

     PseudoPot. # 1 for Si read from file:
     ./pseudos/Si.nc.UPF
     MD5 check sum: 9e2d726316af3d4752eea8ab0afbb951
     Pseudo is Norm-conserving + core correction, Zval =  4.0
     Generated using ONCVPSP code by D. R. Hamann
     Using radial grid of 1510 points,  6 beta functions with: 
                l(1) =   0
                l(2) =   0
                l(3) =   1
                l(4) =   1
                l(5) =   2
                l(6) =   2

     Mode symmetry, O_h (m-3m)  point group:


     Electric field:
     Dielectric constant
     Born effective charges in two ways 


     Atomic displacements:
     There are    2 irreducible representations

     Representation     1      3 modes -  To be done

     Representation     2      3 modes -  To be done



     Alpha used in Ewald sum =   2.8000
     PHONON       :      0.23s CPU      0.42s WALL


     Electric Fields Calculation

      iter #   1 total cpu time :     3.8 secs   av.it.:   6.5
      thresh= 1.000E-02 alpha_mix =  0.700 |ddv_scf|^2 =  5.870E-08

      iter #   2 total cpu time :     5.6 secs   av.it.:  12.0
      thresh= 2.423E-05 alpha_mix =  0.700 |ddv_scf|^2 =  2.516E-09

      iter #   3 total cpu time :     7.5 secs   av.it.:  11.9
      thresh= 5.016E-06 alpha_mix =  0.700 |ddv_scf|^2 =  2.836E-11

      iter #   4 total cpu time :     9.5 secs   av.it.:  12.2
      thresh= 5.325E-07 alpha_mix =  0.700 |ddv_scf|^2 =  1.682E-13

      iter #   5 total cpu time :    11.1 secs   av.it.:  11.2
      thresh= 4.101E-08 alpha_mix =  0.700 |ddv_scf|^2 =  6.178E-17

     End of electric fields calculation

          Dielectric constant in cartesian axis 

          (      13.311779148       0.000000000       0.000000000 )
          (       0.000000000      13.311779148       0.000000000 )
          (       0.000000000       0.000000000      13.311779148 )

          Effective charges (d Force / dE) in cartesian axis without acoustic sum rule applied (asr)

           atom      1   Si Mean Z*:       -0.00672
      Ex  (       -0.00672        0.00000        0.00000 )
      Ey  (        0.00000       -0.00672        0.00000 )
      Ez  (        0.00000       -0.00000       -0.00672 )
           atom      2   Si Mean Z*:       -0.00672
      Ex  (       -0.00672        0.00000        0.00000 )
      Ey  (        0.00000       -0.00672       -0.00000 )
      Ez  (        0.00000       -0.00000       -0.00672 )

          Effective charges Sum: Mean:       -0.01343
             -0.01343        0.00000        0.00000
              0.00000       -0.01343       -0.00000
              0.00000       -0.00000       -0.01343

          Effective charges (d Force / dE) in cartesian axis with asr applied: 
           atom      1   Si Mean Z*:       -0.00000
      E*x (       -0.00000       -0.00000        0.00000 )
      E*y (        0.00000       -0.00000        0.00000 )
      E*z (        0.00000        0.00000       -0.00000 )
           atom      2   Si Mean Z*:        0.00000
      E*x (        0.00000        0.00000       -0.00000 )
      E*y (        0.00000        0.00000       -0.00000 )
      E*z (       -0.00000       -0.00000        0.00000 )


     Representation #   1 modes #   1   2   3

     Self-consistent Calculation

      iter #   1 total cpu time :    13.0 secs   av.it.:   5.8
      thresh= 1.000E-02 alpha_mix =  0.700 |ddv_scf|^2 =  8.462E-09

      iter #   2 total cpu time :    14.9 secs   av.it.:  12.0
      thresh= 9.199E-06 alpha_mix =  0.700 |ddv_scf|^2 =  1.902E-10

      iter #   3 total cpu time :    16.8 secs   av.it.:  12.0
      thresh= 1.379E-06 alpha_mix =  0.700 |ddv_scf|^2 =  7.098E-12

      iter #   4 total cpu time :    18.6 secs   av.it.:  11.8
      thresh= 2.664E-07 alpha_mix =  0.700 |ddv_scf|^2 =  2.299E-14

      iter #   5 total cpu time :    20.4 secs   av.it.:  12.1
      thresh= 1.516E-08 alpha_mix =  0.700 |ddv_scf|^2 =  1.068E-16

     End of self-consistent calculation

     Convergence has been achieved 


     Representation #   2 modes #   4   5   6

     Self-consistent Calculation

      iter #   1 total cpu time :    21.7 secs   av.it.:   6.0
      thresh= 1.000E-02 alpha_mix =  0.700 |ddv_scf|^2 =  6.108E-09

      iter #   2 total cpu time :    23.6 secs   av.it.:  12.2
      thresh= 7.815E-06 alpha_mix =  0.700 |ddv_scf|^2 =  2.197E-10

      iter #   3 total cpu time :    25.5 secs   av.it.:  12.1
      thresh= 1.482E-06 alpha_mix =  0.700 |ddv_scf|^2 =  9.998E-12

      iter #   4 total cpu time :    27.4 secs   av.it.:  12.1
      thresh= 3.162E-07 alpha_mix =  0.700 |ddv_scf|^2 =  1.790E-14

      iter #   5 total cpu time :    29.3 secs   av.it.:  12.2
      thresh= 1.338E-08 alpha_mix =  0.700 |ddv_scf|^2 =  4.806E-17

     End of self-consistent calculation

     Convergence has been achieved 
 
     Number of q in the star =    1
     List of q in the star:
          1   0.000000000   0.000000000   0.000000000

          Dielectric constant in cartesian axis 

          (      13.311779148       0.000000000       0.000000000 )
          (       0.000000000      13.311779148       0.000000000 )
          (       0.000000000       0.000000000      13.311779148 )

          Effective charges (d Force / dE) in cartesian axis without acoustic sum rule applied (asr)

           atom      1   Si Mean Z*:       -0.00672
      Ex  (       -0.00672        0.00000        0.00000 )
      Ey  (        0.00000       -0.00672        0.00000 )
      Ez  (        0.00000       -0.00000       -0.00672 )
           atom      2   Si Mean Z*:       -0.00672
      Ex  (       -0.00672        0.00000        0.00000 )
      Ey  (        0.00000       -0.00672       -0.00000 )
      Ez  (        0.00000       -0.00000       -0.00672 )

          Effective charges Sum: Mean:       -0.01343
             -0.01343        0.00000        0.00000
              0.00000       -0.01343       -0.00000
              0.00000       -0.00000       -0.01343

          Effective charges (d Force / dE) in cartesian axis with asr applied: 
           atom      1   Si Mean Z*:       -0.00000
      E*x (       -0.00000       -0.00000        0.00000 )
      E*y (        0.00000       -0.00000        0.00000 )
      E*z (        0.00000        0.00000       -0.00000 )
           atom      2   Si Mean Z*:        0.00000
      E*x (        0.00000        0.00000       -0.00000 )
      E*y (        0.00000        0.00000       -0.00000 )
      E*z (       -0.00000       -0.00000        0.00000 )

          Effective charges (d P / du) in cartesian axis 

           atom      1   Si 
      Px  (       -0.00679       -0.00000       -0.00000 )
      Py  (       -0.00000       -0.00679        0.00000 )
      Pz  (       -0.00000        0.00000       -0.00679 )
           atom      2   Si 
      Px  (       -0.00679       -0.00000       -0.00000 )
      Py  (       -0.00000       -0.00679       -0.00000 )
      Pz  (       -0.00000       -0.00000       -0.00679 )

     Diagonalizing the dynamical matrix

     q = (    0.000000000   0.000000000   0.000000000 ) 

 **************************************************************************
     freq (    1) =      -0.111564 [THz] =      -3.721361 [cm-1]
     freq (    2) =      -0.111564 [THz] =      -3.721361 [cm-1]
     freq (    3) =      -0.111564 [THz] =      -3.721361 [cm-1]
     freq (    4) =      15.412098 [THz] =     514.092248 [cm-1]
     freq (    5) =      15.412098 [THz] =     514.092248 [cm-1]
     freq (    6) =      15.412098 [THz] =     514.092248 [cm-1]
 **************************************************************************

     Mode symmetry, O_h (m-3m)  point group:

     freq (   1-   3) =         -3.7  [cm-1]   --> T_1u G_15  G_4- I  
     freq (   4-   6) =        514.1  [cm-1]   --> T_2g G_25' G_5+ R  

     Calculation of q =   -0.1666667   0.1666667  -0.1666667

     Subspace diagonalization in iterative solution of the eigenvalue problem:
     one sub-group per band group will be used
     scalapack distributed-memory algorithm (size of sub-group:  4*  4 procs)

 
     Parallelization info
     --------------------
     sticks:   dense  smooth     PW     G-vecs:    dense   smooth      PW
     Min          35      35     11                  744      744     130
     Max          36      36     12                  747      747     133
     Sum        1003    1003    313                20875    20875    3695
 
     Using Slab Decomposition
 

     Title: 
     default                                                                    


     bravais-lattice index     =            2
     lattice parameter (alat)  =      10.1899  a.u.
     unit-cell volume          =     264.5151 (a.u.)^3
     number of atoms/cell      =            2
     number of atomic types    =            1
     number of electrons       =         8.00
     number of Kohn-Sham states=            4
     kinetic-energy cutoff     =      70.0000  Ry
     charge density cutoff     =     280.0000  Ry
     Exchange-correlation= PW
                           (   1   4   0   0   0   0   0)

     celldm(1)=  10.189905  celldm(2)=   0.000000  celldm(3)=   0.000000
     celldm(4)=   0.000000  celldm(5)=   0.000000  celldm(6)=   0.000000

     crystal axes: (cart. coord. in units of alat)
               a(1) = (  -0.500000   0.000000   0.500000 )  
               a(2) = (   0.000000   0.500000   0.500000 )  
               a(3) = (  -0.500000   0.500000   0.000000 )  

     reciprocal axes: (cart. coord. in units 2 pi/alat)
               b(1) = ( -1.000000 -1.000000  1.000000 )  
               b(2) = (  1.000000  1.000000  1.000000 )  
               b(3) = ( -1.000000  1.000000 -1.000000 )  


     PseudoPot. # 1 for Si read from file:
     ./pseudos/Si.nc.UPF
     MD5 check sum: 9e2d726316af3d4752eea8ab0afbb951
     Pseudo is Norm-conserving + core correction, Zval =  4.0
     Generated using ONCVPSP code by D. R. Hamann
     Using radial grid of 1510 points,  6 beta functions with: 
                l(1) =   0
                l(2) =   0
                l(3) =   1
                l(4) =   1
                l(5) =   2
                l(6) =   2

     atomic species   valence    mass     pseudopotential
        Si             4.00    28.08550     Si( 1.00)

     48 Sym. Ops., with inversion, found



   Cartesian axes

     site n.     atom                  positions (alat units)
         1           Si  tau(   1) = (   0.0000000   0.0000000   0.0000000  )
         2           Si  tau(   2) = (  -0.2500000   0.2500000   0.2500000  )

     number of k points=   364

     Number of k-points >= 100: set verbosity='high' to print them.

     Dense  grid:    20875 G-vectors     FFT dimensions: (  40,  40,  40)

     Estimated max dynamical RAM per process >       1.78 MB

     Estimated total dynamical RAM >      49.75 MB

     The potential is recalculated from file :
     /fastscratch/tsievers/QE_TMP_DIR/_ph0/silicon_ph_bench_nd_16_n_procs_28_1.save/charge-density

     Starting wfcs are    8 atomic wfcs

     Band Structure Calculation
     Davidson diagonalization with overlap

     ethr =  1.25E-10,  avg # of iterations = 12.9

     total cpu time spent up to now is       14.0 secs

     End of band structure calculation

     Number of k-points >= 100: set verbosity='high' to print the bands.

     highest occupied level (ev):     6.1106

     Writing config to output data dir /fastscratch/tsievers/QE_TMP_DIR/_ph0/silicon_ph_bench_nd_16_n_procs_28_1.save/

     default                                                                    

     bravais-lattice index     =            2
     lattice parameter (alat)  =      10.1899  a.u.
     unit-cell volume          =     264.5151 (a.u.)^3
     number of atoms/cell      =            2
     number of atomic types    =            1
     kinetic-energy cut-off    =      70.0000  Ry
     charge density cut-off    =     280.0000  Ry
     convergence threshold     =      1.0E-15
     beta                      =       0.7000
     number of iterations used =            4
     Exchange-correlation= PW
                           (   1   4   0   0   0   0   0)


     celldm(1)=   10.18990  celldm(2)=    0.00000  celldm(3)=    0.00000
     celldm(4)=    0.00000  celldm(5)=    0.00000  celldm(6)=    0.00000

     crystal axes: (cart. coord. in units of alat)
               a(1) = ( -0.5000  0.0000  0.5000 )  
               a(2) = (  0.0000  0.5000  0.5000 )  
               a(3) = ( -0.5000  0.5000  0.0000 )  

     reciprocal axes: (cart. coord. in units 2 pi/alat)
               b(1) = ( -1.0000 -1.0000  1.0000 )  
               b(2) = (  1.0000  1.0000  1.0000 )  
               b(3) = ( -1.0000  1.0000 -1.0000 )  


     Atoms inside the unit cell: 

     Cartesian axes

     site n.  atom      mass           positions (alat units)
        1     Si  28.0855   tau(    1) = (    0.00000    0.00000    0.00000  )
        2     Si  28.0855   tau(    2) = (   -0.25000    0.25000    0.25000  )

     Computing dynamical matrix for 
                    q = (  -0.1666667   0.1666667  -0.1666667 )
 
      6 Sym.Ops. (no q -> -q+G )


     G cutoff =  736.4420  (    747 G-vectors)     FFT grid: ( 40, 40, 40)
     number of k points=   364

     PseudoPot. # 1 for Si read from file:
     ./pseudos/Si.nc.UPF
     MD5 check sum: 9e2d726316af3d4752eea8ab0afbb951
     Pseudo is Norm-conserving + core correction, Zval =  4.0
     Generated using ONCVPSP code by D. R. Hamann
     Using radial grid of 1510 points,  6 beta functions with: 
                l(1) =   0
                l(2) =   0
                l(3) =   1
                l(4) =   1
                l(5) =   2
                l(6) =   2

     Mode symmetry, C_3v (3m)   point group:


     Atomic displacements:
     There are    4 irreducible representations

     Representation     1      1 modes -  To be done

     Representation     2      1 modes -  To be done

     Representation     3      2 modes -  To be done

     Representation     4      2 modes -  To be done



     Alpha used in Ewald sum =   2.8000
     PHONON       :     40.33s CPU     44.48s WALL



     Representation #   1 mode #   1

     Self-consistent Calculation

      iter #   1 total cpu time :    46.7 secs   av.it.:   6.6
      thresh= 1.000E-02 alpha_mix =  0.700 |ddv_scf|^2 =  7.918E-04

      iter #   2 total cpu time :    49.4 secs   av.it.:   9.2
      thresh= 2.814E-03 alpha_mix =  0.700 |ddv_scf|^2 =  2.594E-02

      iter #   3 total cpu time :    51.8 secs   av.it.:   7.6
      thresh= 1.000E-02 alpha_mix =  0.700 |ddv_scf|^2 =  2.106E-07

      iter #   4 total cpu time :    54.6 secs   av.it.:   9.4
      thresh= 4.590E-05 alpha_mix =  0.700 |ddv_scf|^2 =  6.873E-09

      iter #   5 total cpu time :    57.5 secs   av.it.:   9.8
      thresh= 8.290E-06 alpha_mix =  0.700 |ddv_scf|^2 =  2.236E-10

      iter #   6 total cpu time :    60.3 secs   av.it.:   9.3
      thresh= 1.495E-06 alpha_mix =  0.700 |ddv_scf|^2 =  5.442E-10

      iter #   7 total cpu time :    62.7 secs   av.it.:   7.9
      thresh= 2.333E-06 alpha_mix =  0.700 |ddv_scf|^2 =  5.416E-11

      iter #   8 total cpu time :    65.5 secs   av.it.:   8.7
      thresh= 7.359E-07 alpha_mix =  0.700 |ddv_scf|^2 =  3.821E-13

      iter #   9 total cpu time :    68.2 secs   av.it.:   8.5
      thresh= 6.182E-08 alpha_mix =  0.700 |ddv_scf|^2 =  8.340E-15

      iter #  10 total cpu time :    70.8 secs   av.it.:   8.9
      thresh= 9.132E-09 alpha_mix =  0.700 |ddv_scf|^2 =  9.341E-16

     End of self-consistent calculation

     Convergence has been achieved 


     Representation #   2 mode #   2

     Self-consistent Calculation

      iter #   1 total cpu time :    73.1 secs   av.it.:   6.6
      thresh= 1.000E-02 alpha_mix =  0.700 |ddv_scf|^2 =  7.918E-04

      iter #   2 total cpu time :    75.9 secs   av.it.:   9.2
      thresh= 2.814E-03 alpha_mix =  0.700 |ddv_scf|^2 =  2.594E-02

      iter #   3 total cpu time :    78.9 secs   av.it.:   7.6
      thresh= 1.000E-02 alpha_mix =  0.700 |ddv_scf|^2 =  2.106E-07

      iter #   4 total cpu time :    81.7 secs   av.it.:   9.4
      thresh= 4.590E-05 alpha_mix =  0.700 |ddv_scf|^2 =  6.873E-09

      iter #   5 total cpu time :    84.6 secs   av.it.:   9.8
      thresh= 8.290E-06 alpha_mix =  0.700 |ddv_scf|^2 =  2.236E-10

      iter #   6 total cpu time :    87.3 secs   av.it.:   9.3
      thresh= 1.495E-06 alpha_mix =  0.700 |ddv_scf|^2 =  5.442E-10

      iter #   7 total cpu time :    89.8 secs   av.it.:   7.9
      thresh= 2.333E-06 alpha_mix =  0.700 |ddv_scf|^2 =  5.416E-11

      iter #   8 total cpu time :    93.7 secs   av.it.:   8.7
      thresh= 7.359E-07 alpha_mix =  0.700 |ddv_scf|^2 =  3.821E-13

      iter #   9 total cpu time :    96.4 secs   av.it.:   8.5
      thresh= 6.182E-08 alpha_mix =  0.700 |ddv_scf|^2 =  8.340E-15

      iter #  10 total cpu time :    99.1 secs   av.it.:   8.9
      thresh= 9.132E-09 alpha_mix =  0.700 |ddv_scf|^2 =  9.343E-16

     End of self-consistent calculation

     Convergence has been achieved 


     Representation #   3 modes #   3   4

     Self-consistent Calculation

      iter #   1 total cpu time :   103.2 secs   av.it.:   6.1
      thresh= 1.000E-02 alpha_mix =  0.700 |ddv_scf|^2 =  2.065E-08

      iter #   2 total cpu time :   111.0 secs   av.it.:  11.8
      thresh= 1.437E-05 alpha_mix =  0.700 |ddv_scf|^2 =  9.190E-10

      iter #   3 total cpu time :   117.6 secs   av.it.:  11.6
      thresh= 3.031E-06 alpha_mix =  0.700 |ddv_scf|^2 =  2.400E-11

      iter #   4 total cpu time :   124.2 secs   av.it.:  11.7
      thresh= 4.899E-07 alpha_mix =  0.700 |ddv_scf|^2 =  2.769E-13

      iter #   5 total cpu time :   130.9 secs   av.it.:  11.7
      thresh= 5.262E-08 alpha_mix =  0.700 |ddv_scf|^2 =  5.876E-15

      iter #   6 total cpu time :   137.7 secs   av.it.:  12.0
      thresh= 7.665E-09 alpha_mix =  0.700 |ddv_scf|^2 =  2.669E-17

     End of self-consistent calculation

     Convergence has been achieved 


     Representation #   4 modes #   5   6

     Self-consistent Calculation

      iter #   1 total cpu time :   143.2 secs   av.it.:   6.0
      thresh= 1.000E-02 alpha_mix =  0.700 |ddv_scf|^2 =  2.066E-08

      iter #   2 total cpu time :   149.9 secs   av.it.:  11.7
      thresh= 1.437E-05 alpha_mix =  0.700 |ddv_scf|^2 =  9.193E-10

      iter #   3 total cpu time :   156.5 secs   av.it.:  11.5
      thresh= 3.032E-06 alpha_mix =  0.700 |ddv_scf|^2 =  2.400E-11

      iter #   4 total cpu time :   163.2 secs   av.it.:  11.7
      thresh= 4.899E-07 alpha_mix =  0.700 |ddv_scf|^2 =  2.770E-13

      iter #   5 total cpu time :   170.0 secs   av.it.:  11.6
      thresh= 5.263E-08 alpha_mix =  0.700 |ddv_scf|^2 =  5.884E-15

      iter #   6 total cpu time :   177.1 secs   av.it.:  12.0
      thresh= 7.671E-09 alpha_mix =  0.700 |ddv_scf|^2 =  2.667E-17

     End of self-consistent calculation

     Convergence has been achieved 
 
     Number of q in the star =    8
     List of q in the star:
          1  -0.166666667   0.166666667  -0.166666667
          2   0.166666667   0.166666667   0.166666667
          3  -0.166666667  -0.166666667  -0.166666667
          4   0.166666667  -0.166666667   0.166666667
          5   0.166666667  -0.166666667  -0.166666667
          6   0.166666667   0.166666667  -0.166666667
          7  -0.166666667  -0.166666667   0.166666667
          8  -0.166666667   0.166666667   0.166666667

     Diagonalizing the dynamical matrix

     q = (   -0.166666667   0.166666667  -0.166666667 ) 

 **************************************************************************
     freq (    1) =       2.202748 [THz] =      73.475748 [cm-1]
     freq (    2) =       2.202748 [THz] =      73.475748 [cm-1]
     freq (    3) =       4.748483 [THz] =     158.392353 [cm-1]
     freq (    4) =      15.023982 [THz] =     501.146095 [cm-1]
     freq (    5) =      15.065887 [THz] =     502.543902 [cm-1]
     freq (    6) =      15.065887 [THz] =     502.543902 [cm-1]
 **************************************************************************

     Mode symmetry, C_3v (3m)   point group:

     freq (   1-   2) =         73.5  [cm-1]   --> E    L_3           
     freq (   3-   3) =        158.4  [cm-1]   --> A_1  L_1           
     freq (   4-   4) =        501.1  [cm-1]   --> A_1  L_1           
     freq (   5-   6) =        502.5  [cm-1]   --> E    L_3           

     Calculation of q =   -0.3333333   0.3333333  -0.3333333
 
     Parallelization info
     --------------------
     sticks:   dense  smooth     PW     G-vecs:    dense   smooth      PW
     Min          35      35     11                  744      744     136
     Max          36      36     12                  747      747     141
     Sum        1003    1003    313                20875    20875    3839
 
     Using Slab Decomposition
 

     Title: 
     default                                                                    


     bravais-lattice index     =            2
     lattice parameter (alat)  =      10.1899  a.u.
     unit-cell volume          =     264.5151 (a.u.)^3
     number of atoms/cell      =            2
     number of atomic types    =            1
     number of electrons       =         8.00
     number of Kohn-Sham states=            4
     kinetic-energy cutoff     =      70.0000  Ry
     charge density cutoff     =     280.0000  Ry
     Exchange-correlation= PW
                           (   1   4   0   0   0   0   0)

     celldm(1)=  10.189905  celldm(2)=   0.000000  celldm(3)=   0.000000
     celldm(4)=   0.000000  celldm(5)=   0.000000  celldm(6)=   0.000000

     crystal axes: (cart. coord. in units of alat)
               a(1) = (  -0.500000   0.000000   0.500000 )  
               a(2) = (   0.000000   0.500000   0.500000 )  
               a(3) = (  -0.500000   0.500000   0.000000 )  

     reciprocal axes: (cart. coord. in units 2 pi/alat)
               b(1) = ( -1.000000 -1.000000  1.000000 )  
               b(2) = (  1.000000  1.000000  1.000000 )  
               b(3) = ( -1.000000  1.000000 -1.000000 )  


     PseudoPot. # 1 for Si read from file:
     ./pseudos/Si.nc.UPF
     MD5 check sum: 9e2d726316af3d4752eea8ab0afbb951
     Pseudo is Norm-conserving + core correction, Zval =  4.0
     Generated using ONCVPSP code by D. R. Hamann
     Using radial grid of 1510 points,  6 beta functions with: 
                l(1) =   0
                l(2) =   0
                l(3) =   1
                l(4) =   1
                l(5) =   2
                l(6) =   2

     atomic species   valence    mass     pseudopotential
        Si             4.00    28.08550     Si( 1.00)

     48 Sym. Ops., with inversion, found



   Cartesian axes

     site n.     atom                  positions (alat units)
         1           Si  tau(   1) = (   0.0000000   0.0000000   0.0000000  )
         2           Si  tau(   2) = (  -0.2500000   0.2500000   0.2500000  )

     number of k points=   364

     Number of k-points >= 100: set verbosity='high' to print them.

     Dense  grid:    20875 G-vectors     FFT dimensions: (  40,  40,  40)

     Estimated max dynamical RAM per process >       1.79 MB

     Estimated total dynamical RAM >      50.13 MB

     The potential is recalculated from file :
     /fastscratch/tsievers/QE_TMP_DIR/_ph0/silicon_ph_bench_nd_16_n_procs_28_1.save/charge-density

     Starting wfcs are    8 atomic wfcs

     Band Structure Calculation
     Davidson diagonalization with overlap

     ethr =  1.25E-10,  avg # of iterations = 12.9

     total cpu time spent up to now is       28.4 secs

     End of band structure calculation

     Number of k-points >= 100: set verbosity='high' to print the bands.

     highest occupied level (ev):     6.1106

     Writing config to output data dir /fastscratch/tsievers/QE_TMP_DIR/_ph0/silicon_ph_bench_nd_16_n_procs_28_1.save/

     default                                                                    

     bravais-lattice index     =            2
     lattice parameter (alat)  =      10.1899  a.u.
     unit-cell volume          =     264.5151 (a.u.)^3
     number of atoms/cell      =            2
     number of atomic types    =            1
     kinetic-energy cut-off    =      70.0000  Ry
     charge density cut-off    =     280.0000  Ry
     convergence threshold     =      1.0E-15
     beta                      =       0.7000
     number of iterations used =            4
     Exchange-correlation= PW
                           (   1   4   0   0   0   0   0)


     celldm(1)=   10.18990  celldm(2)=    0.00000  celldm(3)=    0.00000
     celldm(4)=    0.00000  celldm(5)=    0.00000  celldm(6)=    0.00000

     crystal axes: (cart. coord. in units of alat)
               a(1) = ( -0.5000  0.0000  0.5000 )  
               a(2) = (  0.0000  0.5000  0.5000 )  
               a(3) = ( -0.5000  0.5000  0.0000 )  

     reciprocal axes: (cart. coord. in units 2 pi/alat)
               b(1) = ( -1.0000 -1.0000  1.0000 )  
               b(2) = (  1.0000  1.0000  1.0000 )  
               b(3) = ( -1.0000  1.0000 -1.0000 )  


     Atoms inside the unit cell: 

     Cartesian axes

     site n.  atom      mass           positions (alat units)
        1     Si  28.0855   tau(    1) = (    0.00000    0.00000    0.00000  )
        2     Si  28.0855   tau(    2) = (   -0.25000    0.25000    0.25000  )

     Computing dynamical matrix for 
                    q = (  -0.3333333   0.3333333  -0.3333333 )
 
      6 Sym.Ops. (no q -> -q+G )


     G cutoff =  736.4420  (    747 G-vectors)     FFT grid: ( 40, 40, 40)
     number of k points=   364

     PseudoPot. # 1 for Si read from file:
     ./pseudos/Si.nc.UPF
     MD5 check sum: 9e2d726316af3d4752eea8ab0afbb951
     Pseudo is Norm-conserving + core correction, Zval =  4.0
     Generated using ONCVPSP code by D. R. Hamann
     Using radial grid of 1510 points,  6 beta functions with: 
                l(1) =   0
                l(2) =   0
                l(3) =   1
                l(4) =   1
                l(5) =   2
                l(6) =   2

     Mode symmetry, C_3v (3m)   point group:


     Atomic displacements:
     There are    4 irreducible representations

     Representation     1      1 modes -  To be done

     Representation     2      1 modes -  To be done

     Representation     3      2 modes -  To be done

     Representation     4      2 modes -  To be done



     Alpha used in Ewald sum =   2.8000
     PHONON       :   2m58.30s CPU   3m12.27s WALL



     Representation #   1 mode #   1

     Self-consistent Calculation

      iter #   1 total cpu time :   194.4 secs   av.it.:   6.5
      thresh= 1.000E-02 alpha_mix =  0.700 |ddv_scf|^2 =  5.013E-05

      iter #   2 total cpu time :   197.4 secs   av.it.:  10.0
      thresh= 7.080E-04 alpha_mix =  0.700 |ddv_scf|^2 =  4.001E-04

      iter #   3 total cpu time :   200.0 secs   av.it.:   8.6
      thresh= 2.000E-03 alpha_mix =  0.700 |ddv_scf|^2 =  7.367E-08

      iter #   4 total cpu time :   203.1 secs   av.it.:  10.1
      thresh= 2.714E-05 alpha_mix =  0.700 |ddv_scf|^2 =  1.497E-09

      iter #   5 total cpu time :   206.2 secs   av.it.:  10.2
      thresh= 3.869E-06 alpha_mix =  0.700 |ddv_scf|^2 =  1.575E-11

      iter #   6 total cpu time :   209.4 secs   av.it.:  10.7
      thresh= 3.968E-07 alpha_mix =  0.700 |ddv_scf|^2 =  1.276E-12

      iter #   7 total cpu time :   212.5 secs   av.it.:  10.6
      thresh= 1.129E-07 alpha_mix =  0.700 |ddv_scf|^2 =  1.169E-14

      iter #   8 total cpu time :   215.6 secs   av.it.:  10.5
      thresh= 1.081E-08 alpha_mix =  0.700 |ddv_scf|^2 =  3.637E-14

      iter #   9 total cpu time :   218.4 secs   av.it.:   9.1
      thresh= 1.907E-08 alpha_mix =  0.700 |ddv_scf|^2 =  3.298E-15

      iter #  10 total cpu time :   221.5 secs   av.it.:   9.6
      thresh= 5.743E-09 alpha_mix =  0.700 |ddv_scf|^2 =  1.375E-16

     End of self-consistent calculation

     Convergence has been achieved 


     Representation #   2 mode #   2

     Self-consistent Calculation

      iter #   1 total cpu time :   223.8 secs   av.it.:   6.5
      thresh= 1.000E-02 alpha_mix =  0.700 |ddv_scf|^2 =  5.013E-05

      iter #   2 total cpu time :   227.3 secs   av.it.:  10.0
      thresh= 7.080E-04 alpha_mix =  0.700 |ddv_scf|^2 =  4.001E-04

      iter #   3 total cpu time :   229.9 secs   av.it.:   8.6
      thresh= 2.000E-03 alpha_mix =  0.700 |ddv_scf|^2 =  7.367E-08

      iter #   4 total cpu time :   232.9 secs   av.it.:  10.2
      thresh= 2.714E-05 alpha_mix =  0.700 |ddv_scf|^2 =  1.497E-09

      iter #   5 total cpu time :   235.9 secs   av.it.:  10.2
      thresh= 3.869E-06 alpha_mix =  0.700 |ddv_scf|^2 =  1.575E-11

      iter #   6 total cpu time :   239.0 secs   av.it.:  10.7
      thresh= 3.968E-07 alpha_mix =  0.700 |ddv_scf|^2 =  1.276E-12

      iter #   7 total cpu time :   242.1 secs   av.it.:  10.6
      thresh= 1.129E-07 alpha_mix =  0.700 |ddv_scf|^2 =  1.161E-14

      iter #   8 total cpu time :   245.3 secs   av.it.:  10.5
      thresh= 1.078E-08 alpha_mix =  0.700 |ddv_scf|^2 =  3.570E-14

      iter #   9 total cpu time :   248.1 secs   av.it.:   9.1
      thresh= 1.889E-08 alpha_mix =  0.700 |ddv_scf|^2 =  3.318E-15

      iter #  10 total cpu time :   250.9 secs   av.it.:   9.6
      thresh= 5.760E-09 alpha_mix =  0.700 |ddv_scf|^2 =  1.368E-16

     End of self-consistent calculation

     Convergence has been achieved 


     Representation #   3 modes #   3   4

     Self-consistent Calculation

      iter #   1 total cpu time :   255.1 secs   av.it.:   6.1
      thresh= 1.000E-02 alpha_mix =  0.700 |ddv_scf|^2 =  2.813E-08

      iter #   2 total cpu time :   263.4 secs   av.it.:  11.7
      thresh= 1.677E-05 alpha_mix =  0.700 |ddv_scf|^2 =  1.949E-09

      iter #   3 total cpu time :   270.1 secs   av.it.:  11.5
      thresh= 4.414E-06 alpha_mix =  0.700 |ddv_scf|^2 =  2.821E-11

      iter #   4 total cpu time :   276.8 secs   av.it.:  11.7
      thresh= 5.311E-07 alpha_mix =  0.700 |ddv_scf|^2 =  2.830E-13

      iter #   5 total cpu time :   283.4 secs   av.it.:  11.6
      thresh= 5.319E-08 alpha_mix =  0.700 |ddv_scf|^2 =  5.507E-15

      iter #   6 total cpu time :   290.5 secs   av.it.:  12.0
      thresh= 7.421E-09 alpha_mix =  0.700 |ddv_scf|^2 =  3.753E-17

     End of self-consistent calculation

     Convergence has been achieved 


     Representation #   4 modes #   5   6

     Self-consistent Calculation

      iter #   1 total cpu time :   294.8 secs   av.it.:   6.1
      thresh= 1.000E-02 alpha_mix =  0.700 |ddv_scf|^2 =  2.814E-08

      iter #   2 total cpu time :   301.6 secs   av.it.:  11.6
      thresh= 1.677E-05 alpha_mix =  0.700 |ddv_scf|^2 =  1.951E-09

      iter #   3 total cpu time :   308.1 secs   av.it.:  11.4
      thresh= 4.417E-06 alpha_mix =  0.700 |ddv_scf|^2 =  2.820E-11

      iter #   4 total cpu time :   314.7 secs   av.it.:  11.6
      thresh= 5.310E-07 alpha_mix =  0.700 |ddv_scf|^2 =  2.829E-13

      iter #   5 total cpu time :   322.1 secs   av.it.:  11.6
      thresh= 5.319E-08 alpha_mix =  0.700 |ddv_scf|^2 =  5.502E-15

      iter #   6 total cpu time :   329.5 secs   av.it.:  12.0
      thresh= 7.418E-09 alpha_mix =  0.700 |ddv_scf|^2 =  3.748E-17

     End of self-consistent calculation

     Convergence has been achieved 
 
     Number of q in the star =    8
     List of q in the star:
          1  -0.333333333   0.333333333  -0.333333333
          2   0.333333333   0.333333333   0.333333333
          3  -0.333333333  -0.333333333  -0.333333333
          4   0.333333333  -0.333333333   0.333333333
          5   0.333333333  -0.333333333  -0.333333333
          6   0.333333333   0.333333333  -0.333333333
          7  -0.333333333  -0.333333333   0.333333333
          8  -0.333333333   0.333333333   0.333333333

     Diagonalizing the dynamical matrix

     q = (   -0.333333333   0.333333333  -0.333333333 ) 

 **************************************************************************
     freq (    1) =       3.044102 [THz] =     101.540318 [cm-1]
     freq (    2) =       3.044102 [THz] =     101.540318 [cm-1]
     freq (    3) =       8.747967 [THz] =     291.800754 [cm-1]
     freq (    4) =      13.857226 [THz] =     462.227300 [cm-1]
     freq (    5) =      14.763298 [THz] =     492.450612 [cm-1]
     freq (    6) =      14.763298 [THz] =     492.450612 [cm-1]
 **************************************************************************

     Mode symmetry, C_3v (3m)   point group:

     freq (   1-   2) =        101.5  [cm-1]   --> E    L_3           
     freq (   3-   3) =        291.8  [cm-1]   --> A_1  L_1           
     freq (   4-   4) =        462.2  [cm-1]   --> A_1  L_1           
     freq (   5-   6) =        492.5  [cm-1]   --> E    L_3           

     Calculation of q =    0.5000000  -0.5000000   0.5000000
 
     Parallelization info
     --------------------
     sticks:   dense  smooth     PW     G-vecs:    dense   smooth      PW
     Min          35      35     12                  744      744     143
     Max          36      36     13                  747      747     145
     Sum        1003    1003    337                20875    20875    4015
 
     Using Slab Decomposition
 

     Title: 
     default                                                                    


     bravais-lattice index     =            2
     lattice parameter (alat)  =      10.1899  a.u.
     unit-cell volume          =     264.5151 (a.u.)^3
     number of atoms/cell      =            2
     number of atomic types    =            1
     number of electrons       =         8.00
     number of Kohn-Sham states=            4
     kinetic-energy cutoff     =      70.0000  Ry
     charge density cutoff     =     280.0000  Ry
     Exchange-correlation= PW
                           (   1   4   0   0   0   0   0)

     celldm(1)=  10.189905  celldm(2)=   0.000000  celldm(3)=   0.000000
     celldm(4)=   0.000000  celldm(5)=   0.000000  celldm(6)=   0.000000

     crystal axes: (cart. coord. in units of alat)
               a(1) = (  -0.500000   0.000000   0.500000 )  
               a(2) = (   0.000000   0.500000   0.500000 )  
               a(3) = (  -0.500000   0.500000   0.000000 )  

     reciprocal axes: (cart. coord. in units 2 pi/alat)
               b(1) = ( -1.000000 -1.000000  1.000000 )  
               b(2) = (  1.000000  1.000000  1.000000 )  
               b(3) = ( -1.000000  1.000000 -1.000000 )  


     PseudoPot. # 1 for Si read from file:
     ./pseudos/Si.nc.UPF
     MD5 check sum: 9e2d726316af3d4752eea8ab0afbb951
     Pseudo is Norm-conserving + core correction, Zval =  4.0
     Generated using ONCVPSP code by D. R. Hamann
     Using radial grid of 1510 points,  6 beta functions with: 
                l(1) =   0
                l(2) =   0
                l(3) =   1
                l(4) =   1
                l(5) =   2
                l(6) =   2

     atomic species   valence    mass     pseudopotential
        Si             4.00    28.08550     Si( 1.00)

     48 Sym. Ops., with inversion, found



   Cartesian axes

     site n.     atom                  positions (alat units)
         1           Si  tau(   1) = (   0.0000000   0.0000000   0.0000000  )
         2           Si  tau(   2) = (  -0.2500000   0.2500000   0.2500000  )

     number of k points=   182

     Number of k-points >= 100: set verbosity='high' to print them.

     Dense  grid:    20875 G-vectors     FFT dimensions: (  40,  40,  40)

     Estimated max dynamical RAM per process >       1.80 MB

     Estimated total dynamical RAM >      50.53 MB

     The potential is recalculated from file :
     /fastscratch/tsievers/QE_TMP_DIR/_ph0/silicon_ph_bench_nd_16_n_procs_28_1.save/charge-density

     Starting wfcs are    8 atomic wfcs

     Band Structure Calculation
     Davidson diagonalization with overlap

     ethr =  1.25E-10,  avg # of iterations = 12.9

     total cpu time spent up to now is       35.9 secs

     End of band structure calculation

     Number of k-points >= 100: set verbosity='high' to print the bands.

     highest occupied level (ev):     6.1106

     Writing config to output data dir /fastscratch/tsievers/QE_TMP_DIR/_ph0/silicon_ph_bench_nd_16_n_procs_28_1.save/

     default                                                                    

     bravais-lattice index     =            2
     lattice parameter (alat)  =      10.1899  a.u.
     unit-cell volume          =     264.5151 (a.u.)^3
     number of atoms/cell      =            2
     number of atomic types    =            1
     kinetic-energy cut-off    =      70.0000  Ry
     charge density cut-off    =     280.0000  Ry
     convergence threshold     =      1.0E-15
     beta                      =       0.7000
     number of iterations used =            4
     Exchange-correlation= PW
                           (   1   4   0   0   0   0   0)


     celldm(1)=   10.18990  celldm(2)=    0.00000  celldm(3)=    0.00000
     celldm(4)=    0.00000  celldm(5)=    0.00000  celldm(6)=    0.00000

     crystal axes: (cart. coord. in units of alat)
               a(1) = ( -0.5000  0.0000  0.5000 )  
               a(2) = (  0.0000  0.5000  0.5000 )  
               a(3) = ( -0.5000  0.5000  0.0000 )  

     reciprocal axes: (cart. coord. in units 2 pi/alat)
               b(1) = ( -1.0000 -1.0000  1.0000 )  
               b(2) = (  1.0000  1.0000  1.0000 )  
               b(3) = ( -1.0000  1.0000 -1.0000 )  


     Atoms inside the unit cell: 

     Cartesian axes

     site n.  atom      mass           positions (alat units)
        1     Si  28.0855   tau(    1) = (    0.00000    0.00000    0.00000  )
        2     Si  28.0855   tau(    2) = (   -0.25000    0.25000    0.25000  )

     Computing dynamical matrix for 
                    q = (   0.5000000  -0.5000000   0.5000000 )
 
     13 Sym.Ops. (with q -> -q+G )


     G cutoff =  736.4420  (    747 G-vectors)     FFT grid: ( 40, 40, 40)
     number of k points=   182

     PseudoPot. # 1 for Si read from file:
     ./pseudos/Si.nc.UPF
     MD5 check sum: 9e2d726316af3d4752eea8ab0afbb951
     Pseudo is Norm-conserving + core correction, Zval =  4.0
     Generated using ONCVPSP code by D. R. Hamann
     Using radial grid of 1510 points,  6 beta functions with: 
                l(1) =   0
                l(2) =   0
                l(3) =   1
                l(4) =   1
                l(5) =   2
                l(6) =   2


     Atomic displacements:
     There are    4 irreducible representations

     Representation     1      1 modes -  To be done

     Representation     2      1 modes -  To be done

     Representation     3      2 modes -  To be done

     Representation     4      2 modes -  To be done



     Alpha used in Ewald sum =   2.8000
     PHONON       :   5m14.41s CPU   5m38.09s WALL



     Representation #   1 mode #   1

     Self-consistent Calculation

      iter #   1 total cpu time :   339.5 secs   av.it.:   5.8
      thresh= 1.000E-02 alpha_mix =  0.700 |ddv_scf|^2 =  1.604E-06

      iter #   2 total cpu time :   341.0 secs   av.it.:  10.2
      thresh= 1.266E-04 alpha_mix =  0.700 |ddv_scf|^2 =  1.480E-06

      iter #   3 total cpu time :   342.5 secs   av.it.:   9.6
      thresh= 1.217E-04 alpha_mix =  0.700 |ddv_scf|^2 =  1.982E-10

      iter #   4 total cpu time :   344.1 secs   av.it.:  10.3
      thresh= 1.408E-06 alpha_mix =  0.700 |ddv_scf|^2 =  3.419E-12

      iter #   5 total cpu time :   345.6 secs   av.it.:  10.2
      thresh= 1.849E-07 alpha_mix =  0.700 |ddv_scf|^2 =  4.872E-14

      iter #   6 total cpu time :   347.1 secs   av.it.:  10.1
      thresh= 2.207E-08 alpha_mix =  0.700 |ddv_scf|^2 =  6.377E-16

     End of self-consistent calculation

     Convergence has been achieved 


     Representation #   2 mode #   2

     Self-consistent Calculation

      iter #   1 total cpu time :   348.4 secs   av.it.:   6.7
      thresh= 1.000E-02 alpha_mix =  0.700 |ddv_scf|^2 =  2.450E-05

      iter #   2 total cpu time :   349.9 secs   av.it.:  10.3
      thresh= 4.950E-04 alpha_mix =  0.700 |ddv_scf|^2 =  8.005E-05

      iter #   3 total cpu time :   351.4 secs   av.it.:   9.3
      thresh= 8.947E-04 alpha_mix =  0.700 |ddv_scf|^2 =  4.730E-09

      iter #   4 total cpu time :   353.6 secs   av.it.:  10.1
      thresh= 6.878E-06 alpha_mix =  0.700 |ddv_scf|^2 =  9.934E-11

      iter #   5 total cpu time :   355.2 secs   av.it.:  10.5
      thresh= 9.967E-07 alpha_mix =  0.700 |ddv_scf|^2 =  4.962E-12

      iter #   6 total cpu time :   356.8 secs   av.it.:  10.3
      thresh= 2.228E-07 alpha_mix =  0.700 |ddv_scf|^2 =  1.400E-13

      iter #   7 total cpu time :   358.3 secs   av.it.:   9.7
      thresh= 3.741E-08 alpha_mix =  0.700 |ddv_scf|^2 =  2.479E-17

     End of self-consistent calculation

     Convergence has been achieved 


     Representation #   3 modes #   3   4

     Self-consistent Calculation

      iter #   1 total cpu time :   360.4 secs   av.it.:   6.1
      thresh= 1.000E-02 alpha_mix =  0.700 |ddv_scf|^2 =  5.662E-08

      iter #   2 total cpu time :   363.8 secs   av.it.:  11.6
      thresh= 2.379E-05 alpha_mix =  0.700 |ddv_scf|^2 =  4.800E-09

      iter #   3 total cpu time :   367.3 secs   av.it.:  11.4
      thresh= 6.928E-06 alpha_mix =  0.700 |ddv_scf|^2 =  3.214E-11

      iter #   4 total cpu time :   371.2 secs   av.it.:  11.4
      thresh= 5.669E-07 alpha_mix =  0.700 |ddv_scf|^2 =  3.595E-14

      iter #   5 total cpu time :   374.6 secs   av.it.:  11.8
      thresh= 1.896E-08 alpha_mix =  0.700 |ddv_scf|^2 =  4.721E-16

     End of self-consistent calculation

     Convergence has been achieved 


     Representation #   4 modes #   5   6

     Self-consistent Calculation

      iter #   1 total cpu time :   376.7 secs   av.it.:   5.5
      thresh= 1.000E-02 alpha_mix =  0.700 |ddv_scf|^2 =  6.426E-09

      iter #   2 total cpu time :   380.1 secs   av.it.:  11.5
      thresh= 8.016E-06 alpha_mix =  0.700 |ddv_scf|^2 =  1.684E-10

      iter #   3 total cpu time :   383.6 secs   av.it.:  11.5
      thresh= 1.298E-06 alpha_mix =  0.700 |ddv_scf|^2 =  1.036E-11

      iter #   4 total cpu time :   387.0 secs   av.it.:  11.5
      thresh= 3.218E-07 alpha_mix =  0.700 |ddv_scf|^2 =  4.432E-14

      iter #   5 total cpu time :   390.3 secs   av.it.:  11.5
      thresh= 2.105E-08 alpha_mix =  0.700 |ddv_scf|^2 =  7.079E-16

     End of self-consistent calculation

     Convergence has been achieved 
 
     Number of q in the star =    4
     List of q in the star:
          1   0.500000000  -0.500000000   0.500000000
          2   0.500000000   0.500000000   0.500000000
          3  -0.500000000   0.500000000   0.500000000
          4   0.500000000   0.500000000  -0.500000000

     Diagonalizing the dynamical matrix

     q = (    0.500000000  -0.500000000   0.500000000 ) 

 **************************************************************************
     freq (    1) =       3.157186 [THz] =     105.312379 [cm-1]
     freq (    2) =       3.157186 [THz] =     105.312379 [cm-1]
     freq (    3) =      11.169087 [THz] =     372.560646 [cm-1]
     freq (    4) =      12.390635 [THz] =     413.307086 [cm-1]
     freq (    5) =      14.704259 [THz] =     490.481289 [cm-1]
     freq (    6) =      14.704259 [THz] =     490.481289 [cm-1]
 **************************************************************************

     Calculation of q =    0.0000000   0.3333333   0.0000000
 
     Parallelization info
     --------------------
     sticks:   dense  smooth     PW     G-vecs:    dense   smooth      PW
     Min          35      35     11                  744      744     131
     Max          36      36     12                  747      747     134
     Sum        1003    1003    313                20875    20875    3719
 
     Using Slab Decomposition
 

     Title: 
     default                                                                    


     bravais-lattice index     =            2
     lattice parameter (alat)  =      10.1899  a.u.
     unit-cell volume          =     264.5151 (a.u.)^3
     number of atoms/cell      =            2
     number of atomic types    =            1
     number of electrons       =         8.00
     number of Kohn-Sham states=            4
     kinetic-energy cutoff     =      70.0000  Ry
     charge density cutoff     =     280.0000  Ry
     Exchange-correlation= PW
                           (   1   4   0   0   0   0   0)

     celldm(1)=  10.189905  celldm(2)=   0.000000  celldm(3)=   0.000000
     celldm(4)=   0.000000  celldm(5)=   0.000000  celldm(6)=   0.000000

     crystal axes: (cart. coord. in units of alat)
               a(1) = (  -0.500000   0.000000   0.500000 )  
               a(2) = (   0.000000   0.500000   0.500000 )  
               a(3) = (  -0.500000   0.500000   0.000000 )  

     reciprocal axes: (cart. coord. in units 2 pi/alat)
               b(1) = ( -1.000000 -1.000000  1.000000 )  
               b(2) = (  1.000000  1.000000  1.000000 )  
               b(3) = ( -1.000000  1.000000 -1.000000 )  


     PseudoPot. # 1 for Si read from file:
     ./pseudos/Si.nc.UPF
     MD5 check sum: 9e2d726316af3d4752eea8ab0afbb951
     Pseudo is Norm-conserving + core correction, Zval =  4.0
     Generated using ONCVPSP code by D. R. Hamann
     Using radial grid of 1510 points,  6 beta functions with: 
                l(1) =   0
                l(2) =   0
                l(3) =   1
                l(4) =   1
                l(5) =   2
                l(6) =   2

     atomic species   valence    mass     pseudopotential
        Si             4.00    28.08550     Si( 1.00)

     48 Sym. Ops., with inversion, found



   Cartesian axes

     site n.     atom                  positions (alat units)
         1           Si  tau(   1) = (   0.0000000   0.0000000   0.0000000  )
         2           Si  tau(   2) = (  -0.2500000   0.2500000   0.2500000  )

     number of k points=   252

     Number of k-points >= 100: set verbosity='high' to print them.

     Dense  grid:    20875 G-vectors     FFT dimensions: (  40,  40,  40)

     Estimated max dynamical RAM per process >       1.78 MB

     Estimated total dynamical RAM >      49.79 MB

     The potential is recalculated from file :
     /fastscratch/tsievers/QE_TMP_DIR/_ph0/silicon_ph_bench_nd_16_n_procs_28_1.save/charge-density

     Starting wfcs are    8 atomic wfcs

     Band Structure Calculation
     Davidson diagonalization with overlap

     ethr =  1.25E-10,  avg # of iterations = 12.8

     total cpu time spent up to now is       45.7 secs

     End of band structure calculation

     Number of k-points >= 100: set verbosity='high' to print the bands.

     highest occupied level (ev):     6.1106

     Writing config to output data dir /fastscratch/tsievers/QE_TMP_DIR/_ph0/silicon_ph_bench_nd_16_n_procs_28_1.save/

     default                                                                    

     bravais-lattice index     =            2
     lattice parameter (alat)  =      10.1899  a.u.
     unit-cell volume          =     264.5151 (a.u.)^3
     number of atoms/cell      =            2
     number of atomic types    =            1
     kinetic-energy cut-off    =      70.0000  Ry
     charge density cut-off    =     280.0000  Ry
     convergence threshold     =      1.0E-15
     beta                      =       0.7000
     number of iterations used =            4
     Exchange-correlation= PW
                           (   1   4   0   0   0   0   0)


     celldm(1)=   10.18990  celldm(2)=    0.00000  celldm(3)=    0.00000
     celldm(4)=    0.00000  celldm(5)=    0.00000  celldm(6)=    0.00000

     crystal axes: (cart. coord. in units of alat)
               a(1) = ( -0.5000  0.0000  0.5000 )  
               a(2) = (  0.0000  0.5000  0.5000 )  
               a(3) = ( -0.5000  0.5000  0.0000 )  

     reciprocal axes: (cart. coord. in units 2 pi/alat)
               b(1) = ( -1.0000 -1.0000  1.0000 )  
               b(2) = (  1.0000  1.0000  1.0000 )  
               b(3) = ( -1.0000  1.0000 -1.0000 )  


     Atoms inside the unit cell: 

     Cartesian axes

     site n.  atom      mass           positions (alat units)
        1     Si  28.0855   tau(    1) = (    0.00000    0.00000    0.00000  )
        2     Si  28.0855   tau(    2) = (   -0.25000    0.25000    0.25000  )

     Computing dynamical matrix for 
                    q = (   0.0000000   0.3333333   0.0000000 )
 
      8 Sym.Ops. (no q -> -q+G )


     G cutoff =  736.4420  (    747 G-vectors)     FFT grid: ( 40, 40, 40)
     number of k points=   252

     PseudoPot. # 1 for Si read from file:
     ./pseudos/Si.nc.UPF
     MD5 check sum: 9e2d726316af3d4752eea8ab0afbb951
     Pseudo is Norm-conserving + core correction, Zval =  4.0
     Generated using ONCVPSP code by D. R. Hamann
     Using radial grid of 1510 points,  6 beta functions with: 
                l(1) =   0
                l(2) =   0
                l(3) =   1
                l(4) =   1
                l(5) =   2
                l(6) =   2

     Mode symmetry, C_4v (4mm)  point group:


     Atomic displacements:
     There are    4 irreducible representations

     Representation     1      1 modes -  To be done

     Representation     2      1 modes -  To be done

     Representation     3      2 modes -  To be done

     Representation     4      2 modes -  To be done



     Alpha used in Ewald sum =   2.8000
     PHONON       :   6m12.42s CPU   6m40.97s WALL



     Representation #   1 mode #   1

     Self-consistent Calculation

      iter #   1 total cpu time :   402.5 secs   av.it.:   6.8
      thresh= 1.000E-02 alpha_mix =  0.700 |ddv_scf|^2 =  1.063E-03

      iter #   2 total cpu time :   404.5 secs   av.it.:   9.4
      thresh= 3.261E-03 alpha_mix =  0.700 |ddv_scf|^2 =  3.243E-02

      iter #   3 total cpu time :   406.3 secs   av.it.:   8.1
      thresh= 1.000E-02 alpha_mix =  0.700 |ddv_scf|^2 =  2.989E-08

      iter #   4 total cpu time :   408.2 secs   av.it.:   9.2
      thresh= 1.729E-05 alpha_mix =  0.700 |ddv_scf|^2 =  1.416E-09

      iter #   5 total cpu time :   410.1 secs   av.it.:   8.9
      thresh= 3.763E-06 alpha_mix =  0.700 |ddv_scf|^2 =  4.619E-10

      iter #   6 total cpu time :   411.9 secs   av.it.:   8.5
      thresh= 2.149E-06 alpha_mix =  0.700 |ddv_scf|^2 =  6.142E-13

      iter #   7 total cpu time :   413.8 secs   av.it.:   8.8
      thresh= 7.837E-08 alpha_mix =  0.700 |ddv_scf|^2 =  1.445E-14

      iter #   8 total cpu time :   415.6 secs   av.it.:   8.7
      thresh= 1.202E-08 alpha_mix =  0.700 |ddv_scf|^2 =  1.730E-16

     End of self-consistent calculation

     Convergence has been achieved 


     Representation #   2 mode #   2

     Self-consistent Calculation

      iter #   1 total cpu time :   417.1 secs   av.it.:   5.9
      thresh= 1.000E-02 alpha_mix =  0.700 |ddv_scf|^2 =  1.623E-07

      iter #   2 total cpu time :   419.2 secs   av.it.:  10.7
      thresh= 4.029E-05 alpha_mix =  0.700 |ddv_scf|^2 =  2.626E-08

      iter #   3 total cpu time :   422.8 secs   av.it.:  10.5
      thresh= 1.620E-05 alpha_mix =  0.700 |ddv_scf|^2 =  3.320E-10

      iter #   4 total cpu time :   425.0 secs   av.it.:  10.6
      thresh= 1.822E-06 alpha_mix =  0.700 |ddv_scf|^2 =  1.379E-11

      iter #   5 total cpu time :   427.2 secs   av.it.:  10.6
      thresh= 3.713E-07 alpha_mix =  0.700 |ddv_scf|^2 =  3.141E-14

      iter #   6 total cpu time :   429.3 secs   av.it.:  10.7
      thresh= 1.772E-08 alpha_mix =  0.700 |ddv_scf|^2 =  6.275E-16

     End of self-consistent calculation

     Convergence has been achieved 


     Representation #   3 modes #   3   4

     Self-consistent Calculation

      iter #   1 total cpu time :   432.2 secs   av.it.:   6.0
      thresh= 1.000E-02 alpha_mix =  0.700 |ddv_scf|^2 =  2.938E-08

      iter #   2 total cpu time :   437.6 secs   av.it.:  11.7
      thresh= 1.714E-05 alpha_mix =  0.700 |ddv_scf|^2 =  2.678E-09

      iter #   3 total cpu time :   442.2 secs   av.it.:  11.4
      thresh= 5.175E-06 alpha_mix =  0.700 |ddv_scf|^2 =  3.122E-11

      iter #   4 total cpu time :   446.9 secs   av.it.:  11.6
      thresh= 5.587E-07 alpha_mix =  0.700 |ddv_scf|^2 =  3.510E-13

      iter #   5 total cpu time :   451.6 secs   av.it.:  11.5
      thresh= 5.925E-08 alpha_mix =  0.700 |ddv_scf|^2 =  5.827E-15

      iter #   6 total cpu time :   456.4 secs   av.it.:  12.0
      thresh= 7.633E-09 alpha_mix =  0.700 |ddv_scf|^2 =  2.373E-17

     End of self-consistent calculation

     Convergence has been achieved 


     Representation #   4 modes #   5   6

     Self-consistent Calculation

      iter #   1 total cpu time :   459.4 secs   av.it.:   6.0
      thresh= 1.000E-02 alpha_mix =  0.700 |ddv_scf|^2 =  3.874E-08

      iter #   2 total cpu time :   464.0 secs   av.it.:  11.5
      thresh= 1.968E-05 alpha_mix =  0.700 |ddv_scf|^2 =  3.653E-09

      iter #   3 total cpu time :   469.1 secs   av.it.:  11.3
      thresh= 6.044E-06 alpha_mix =  0.700 |ddv_scf|^2 =  3.305E-11

      iter #   4 total cpu time :   473.7 secs   av.it.:  11.5
      thresh= 5.749E-07 alpha_mix =  0.700 |ddv_scf|^2 =  2.246E-13

      iter #   5 total cpu time :   478.4 secs   av.it.:  11.5
      thresh= 4.739E-08 alpha_mix =  0.700 |ddv_scf|^2 =  5.334E-15

      iter #   6 total cpu time :   483.1 secs   av.it.:  11.9
      thresh= 7.304E-09 alpha_mix =  0.700 |ddv_scf|^2 =  2.258E-17

     End of self-consistent calculation

     Convergence has been achieved 
 
     Number of q in the star =    6
     List of q in the star:
          1   0.000000000   0.333333333   0.000000000
          2   0.333333333   0.000000000   0.000000000
          3   0.000000000   0.000000000   0.333333333
          4   0.000000000  -0.333333333   0.000000000
          5  -0.333333333   0.000000000   0.000000000
          6   0.000000000   0.000000000  -0.333333333

     Diagonalizing the dynamical matrix

     q = (    0.000000000   0.333333333   0.000000000 ) 

 **************************************************************************
     freq (    1) =       2.948449 [THz] =      98.349681 [cm-1]
     freq (    2) =       2.948449 [THz] =      98.349681 [cm-1]
     freq (    3) =       4.953334 [THz] =     165.225434 [cm-1]
     freq (    4) =      14.670276 [THz] =     489.347718 [cm-1]
     freq (    5) =      14.670276 [THz] =     489.347718 [cm-1]
     freq (    6) =      15.142888 [THz] =     505.112362 [cm-1]
 **************************************************************************

     Mode symmetry, C_4v (4mm)  point group:

     freq (   1-   2) =         98.3  [cm-1]   --> E    G_5 D_5       
     freq (   3-   3) =        165.2  [cm-1]   --> A_1  G_1 D_1       
     freq (   4-   5) =        489.3  [cm-1]   --> E    G_5 D_5       
     freq (   6-   6) =        505.1  [cm-1]   --> B_2  G_4 D_2'      

     Calculation of q =   -0.1666667   0.5000000  -0.1666667
 
     Parallelization info
     --------------------
     sticks:   dense  smooth     PW     G-vecs:    dense   smooth      PW
     Min          35      35     11                  744      744     136
     Max          36      36     12                  747      747     141
     Sum        1003    1003    313                20875    20875    3839
 
     Using Slab Decomposition
 

     Title: 
     default                                                                    


     bravais-lattice index     =            2
     lattice parameter (alat)  =      10.1899  a.u.
     unit-cell volume          =     264.5151 (a.u.)^3
     number of atoms/cell      =            2
     number of atomic types    =            1
     number of electrons       =         8.00
     number of Kohn-Sham states=            4
     kinetic-energy cutoff     =      70.0000  Ry
     charge density cutoff     =     280.0000  Ry
     Exchange-correlation= PW
                           (   1   4   0   0   0   0   0)

     celldm(1)=  10.189905  celldm(2)=   0.000000  celldm(3)=   0.000000
     celldm(4)=   0.000000  celldm(5)=   0.000000  celldm(6)=   0.000000

     crystal axes: (cart. coord. in units of alat)
               a(1) = (  -0.500000   0.000000   0.500000 )  
               a(2) = (   0.000000   0.500000   0.500000 )  
               a(3) = (  -0.500000   0.500000   0.000000 )  

     reciprocal axes: (cart. coord. in units 2 pi/alat)
               b(1) = ( -1.000000 -1.000000  1.000000 )  
               b(2) = (  1.000000  1.000000  1.000000 )  
               b(3) = ( -1.000000  1.000000 -1.000000 )  


     PseudoPot. # 1 for Si read from file:
     ./pseudos/Si.nc.UPF
     MD5 check sum: 9e2d726316af3d4752eea8ab0afbb951
     Pseudo is Norm-conserving + core correction, Zval =  4.0
     Generated using ONCVPSP code by D. R. Hamann
     Using radial grid of 1510 points,  6 beta functions with: 
                l(1) =   0
                l(2) =   0
                l(3) =   1
                l(4) =   1
                l(5) =   2
                l(6) =   2

     atomic species   valence    mass     pseudopotential
        Si             4.00    28.08550     Si( 1.00)

     48 Sym. Ops., with inversion, found



   Cartesian axes

     site n.     atom                  positions (alat units)
         1           Si  tau(   1) = (   0.0000000   0.0000000   0.0000000  )
         2           Si  tau(   2) = (  -0.2500000   0.2500000   0.2500000  )

     number of k points=   936

     Number of k-points >= 100: set verbosity='high' to print them.

     Dense  grid:    20875 G-vectors     FFT dimensions: (  40,  40,  40)

     Estimated max dynamical RAM per process >       1.79 MB

     Estimated total dynamical RAM >      50.11 MB

     The potential is recalculated from file :
     /fastscratch/tsievers/QE_TMP_DIR/_ph0/silicon_ph_bench_nd_16_n_procs_28_1.save/charge-density

     Starting wfcs are    8 atomic wfcs

     Band Structure Calculation
     Davidson diagonalization with overlap

     ethr =  1.25E-10,  avg # of iterations = 12.8

     total cpu time spent up to now is       82.6 secs

     End of band structure calculation

     Number of k-points >= 100: set verbosity='high' to print the bands.

     highest occupied level (ev):     6.1106

     Writing config to output data dir /fastscratch/tsievers/QE_TMP_DIR/_ph0/silicon_ph_bench_nd_16_n_procs_28_1.save/

     default                                                                    

     bravais-lattice index     =            2
     lattice parameter (alat)  =      10.1899  a.u.
     unit-cell volume          =     264.5151 (a.u.)^3
     number of atoms/cell      =            2
     number of atomic types    =            1
     kinetic-energy cut-off    =      70.0000  Ry
     charge density cut-off    =     280.0000  Ry
     convergence threshold     =      1.0E-15
     beta                      =       0.7000
     number of iterations used =            4
     Exchange-correlation= PW
                           (   1   4   0   0   0   0   0)


     celldm(1)=   10.18990  celldm(2)=    0.00000  celldm(3)=    0.00000
     celldm(4)=    0.00000  celldm(5)=    0.00000  celldm(6)=    0.00000

     crystal axes: (cart. coord. in units of alat)
               a(1) = ( -0.5000  0.0000  0.5000 )  
               a(2) = (  0.0000  0.5000  0.5000 )  
               a(3) = ( -0.5000  0.5000  0.0000 )  

     reciprocal axes: (cart. coord. in units 2 pi/alat)
               b(1) = ( -1.0000 -1.0000  1.0000 )  
               b(2) = (  1.0000  1.0000  1.0000 )  
               b(3) = ( -1.0000  1.0000 -1.0000 )  


     Atoms inside the unit cell: 

     Cartesian axes

[...]
      thresh= 1.000E-02 alpha_mix =  0.700 |ddv_scf|^2 =  2.746E-06

      iter #   2 total cpu time :  3440.0 secs   av.it.:  11.1
      thresh= 1.657E-04 alpha_mix =  0.700 |ddv_scf|^2 =  3.482E-06

      iter #   3 total cpu time :  3447.0 secs   av.it.:  10.3
      thresh= 1.866E-04 alpha_mix =  0.700 |ddv_scf|^2 =  3.985E-08

      iter #   4 total cpu time :  3455.2 secs   av.it.:  10.5
      thresh= 1.996E-05 alpha_mix =  0.700 |ddv_scf|^2 =  2.005E-10

      iter #   5 total cpu time :  3463.0 secs   av.it.:  10.8
      thresh= 1.416E-06 alpha_mix =  0.700 |ddv_scf|^2 =  5.083E-12

      iter #   6 total cpu time :  3470.3 secs   av.it.:  10.9
      thresh= 2.255E-07 alpha_mix =  0.700 |ddv_scf|^2 =  2.980E-14

      iter #   7 total cpu time :  3477.6 secs   av.it.:  10.8
      thresh= 1.726E-08 alpha_mix =  0.700 |ddv_scf|^2 =  3.309E-15

      iter #   8 total cpu time :  3486.1 secs   av.it.:  10.8
      thresh= 5.752E-09 alpha_mix =  0.700 |ddv_scf|^2 =  1.037E-16

     End of self-consistent calculation

     Convergence has been achieved 


     Representation #   6 mode #   6

     Self-consistent Calculation

      iter #   1 total cpu time :  3491.8 secs   av.it.:   6.3
      thresh= 1.000E-02 alpha_mix =  0.700 |ddv_scf|^2 =  1.290E-06

      iter #   2 total cpu time :  3499.3 secs   av.it.:  11.0
      thresh= 1.136E-04 alpha_mix =  0.700 |ddv_scf|^2 =  1.415E-06

      iter #   3 total cpu time :  3506.2 secs   av.it.:  10.2
      thresh= 1.190E-04 alpha_mix =  0.700 |ddv_scf|^2 =  3.465E-08

      iter #   4 total cpu time :  3514.7 secs   av.it.:  10.4
      thresh= 1.861E-05 alpha_mix =  0.700 |ddv_scf|^2 =  1.130E-10

      iter #   5 total cpu time :  3522.2 secs   av.it.:  10.8
      thresh= 1.063E-06 alpha_mix =  0.700 |ddv_scf|^2 =  2.129E-12

      iter #   6 total cpu time :  3529.4 secs   av.it.:  10.8
      thresh= 1.459E-07 alpha_mix =  0.700 |ddv_scf|^2 =  9.960E-15

      iter #   7 total cpu time :  3537.0 secs   av.it.:  10.8
      thresh= 9.980E-09 alpha_mix =  0.700 |ddv_scf|^2 =  5.673E-16

     End of self-consistent calculation

     Convergence has been achieved 
 
     Number of q in the star =   24
     List of q in the star:
          1   0.500000000  -0.166666667   0.833333333
          2   0.833333333   0.166666667   0.500000000
          3   0.500000000   0.166666667   0.833333333
          4  -0.833333333  -0.166666667   0.500000000
          5  -0.833333333  -0.166666667  -0.500000000
          6  -0.500000000  -0.166666667  -0.833333333
          7   0.833333333  -0.166666667   0.500000000
          8  -0.500000000  -0.166666667   0.833333333
          9  -0.833333333   0.166666667   0.500000000
         10   0.833333333   0.166666667  -0.500000000
         11   0.833333333  -0.166666667  -0.500000000
         12   0.500000000   0.166666667  -0.833333333
         13  -0.500000000   0.166666667   0.833333333
         14  -0.500000000   0.166666667  -0.833333333
         15  -0.833333333   0.166666667  -0.500000000
         16   0.833333333  -0.500000000   0.166666667
         17   0.833333333   0.500000000  -0.166666667
         18  -0.833333333  -0.500000000  -0.166666667
         19  -0.833333333   0.500000000   0.166666667
         20   0.166666667  -0.500000000   0.833333333
         21  -0.166666667   0.500000000   0.833333333
         22   0.166666667   0.500000000  -0.833333333
         23  -0.166666667  -0.500000000  -0.833333333
         24  -0.500000000   0.833333333   0.166666667

     Diagonalizing the dynamical matrix

     q = (    0.500000000  -0.166666667   0.833333333 ) 

 **************************************************************************
     freq (    1) =       5.052005 [THz] =     168.516737 [cm-1]
     freq (    2) =       6.066503 [THz] =     202.356768 [cm-1]
     freq (    3) =       9.812694 [THz] =     327.316252 [cm-1]
     freq (    4) =      11.453270 [THz] =     382.039963 [cm-1]
     freq (    5) =      14.042010 [THz] =     468.391020 [cm-1]
     freq (    6) =      14.270754 [THz] =     476.021118 [cm-1]
 **************************************************************************

     Calculation of q =   -0.3333333  -1.0000000   0.0000000
 
     Parallelization info
     --------------------
     sticks:   dense  smooth     PW     G-vecs:    dense   smooth      PW
     Min          35      35     12                  744      744     151
     Max          36      36     13                  747      747     155
     Sum        1003    1003    349                20875    20875    4279
 
     Using Slab Decomposition
 

     Title: 
     default                                                                    


     bravais-lattice index     =            2
     lattice parameter (alat)  =      10.1899  a.u.
     unit-cell volume          =     264.5151 (a.u.)^3
     number of atoms/cell      =            2
     number of atomic types    =            1
     number of electrons       =         8.00
     number of Kohn-Sham states=            4
     kinetic-energy cutoff     =      70.0000  Ry
     charge density cutoff     =     280.0000  Ry
     Exchange-correlation= PW
                           (   1   4   0   0   0   0   0)

     celldm(1)=  10.189905  celldm(2)=   0.000000  celldm(3)=   0.000000
     celldm(4)=   0.000000  celldm(5)=   0.000000  celldm(6)=   0.000000

     crystal axes: (cart. coord. in units of alat)
               a(1) = (  -0.500000   0.000000   0.500000 )  
               a(2) = (   0.000000   0.500000   0.500000 )  
               a(3) = (  -0.500000   0.500000   0.000000 )  

     reciprocal axes: (cart. coord. in units 2 pi/alat)
               b(1) = ( -1.000000 -1.000000  1.000000 )  
               b(2) = (  1.000000  1.000000  1.000000 )  
               b(3) = ( -1.000000  1.000000 -1.000000 )  


     PseudoPot. # 1 for Si read from file:
     ./pseudos/Si.nc.UPF
     MD5 check sum: 9e2d726316af3d4752eea8ab0afbb951
     Pseudo is Norm-conserving + core correction, Zval =  4.0
     Generated using ONCVPSP code by D. R. Hamann
     Using radial grid of 1510 points,  6 beta functions with: 
                l(1) =   0
                l(2) =   0
                l(3) =   1
                l(4) =   1
                l(5) =   2
                l(6) =   2

     atomic species   valence    mass     pseudopotential
        Si             4.00    28.08550     Si( 1.00)

     48 Sym. Ops., with inversion, found



   Cartesian axes

     site n.     atom                  positions (alat units)
         1           Si  tau(   1) = (   0.0000000   0.0000000   0.0000000  )
         2           Si  tau(   2) = (  -0.2500000   0.2500000   0.2500000  )

     number of k points=   432

     Number of k-points >= 100: set verbosity='high' to print them.

     Dense  grid:    20875 G-vectors     FFT dimensions: (  40,  40,  40)

     Estimated max dynamical RAM per process >       1.81 MB

     Estimated total dynamical RAM >      50.80 MB

     The potential is recalculated from file :
     /fastscratch/tsievers/QE_TMP_DIR/_ph0/silicon_ph_bench_nd_16_n_procs_28_1.save/charge-density

     Starting wfcs are    8 atomic wfcs

     Band Structure Calculation
     Davidson diagonalization with overlap

     ethr =  1.25E-10,  avg # of iterations = 12.8

     total cpu time spent up to now is      333.5 secs

     End of band structure calculation

     Number of k-points >= 100: set verbosity='high' to print the bands.

     highest occupied level (ev):     6.1106

     Writing config to output data dir /fastscratch/tsievers/QE_TMP_DIR/_ph0/silicon_ph_bench_nd_16_n_procs_28_1.save/

     default                                                                    

     bravais-lattice index     =            2
     lattice parameter (alat)  =      10.1899  a.u.
     unit-cell volume          =     264.5151 (a.u.)^3
     number of atoms/cell      =            2
     number of atomic types    =            1
     kinetic-energy cut-off    =      70.0000  Ry
     charge density cut-off    =     280.0000  Ry
     convergence threshold     =      1.0E-15
     beta                      =       0.7000
     number of iterations used =            4
     Exchange-correlation= PW
                           (   1   4   0   0   0   0   0)


     celldm(1)=   10.18990  celldm(2)=    0.00000  celldm(3)=    0.00000
     celldm(4)=    0.00000  celldm(5)=    0.00000  celldm(6)=    0.00000

     crystal axes: (cart. coord. in units of alat)
               a(1) = ( -0.5000  0.0000  0.5000 )  
               a(2) = (  0.0000  0.5000  0.5000 )  
               a(3) = ( -0.5000  0.5000  0.0000 )  

     reciprocal axes: (cart. coord. in units 2 pi/alat)
               b(1) = ( -1.0000 -1.0000  1.0000 )  
               b(2) = (  1.0000  1.0000  1.0000 )  
               b(3) = ( -1.0000  1.0000 -1.0000 )  


     Atoms inside the unit cell: 

     Cartesian axes

     site n.  atom      mass           positions (alat units)
        1     Si  28.0855   tau(    1) = (    0.00000    0.00000    0.00000  )
        2     Si  28.0855   tau(    2) = (   -0.25000    0.25000    0.25000  )

     Computing dynamical matrix for 
                    q = (  -0.3333333  -1.0000000   0.0000000 )
 
      4 Sym.Ops. (no q -> -q+G )


     G cutoff =  736.4420  (    747 G-vectors)     FFT grid: ( 40, 40, 40)
     number of k points=   432

     PseudoPot. # 1 for Si read from file:
     ./pseudos/Si.nc.UPF
     MD5 check sum: 9e2d726316af3d4752eea8ab0afbb951
     Pseudo is Norm-conserving + core correction, Zval =  4.0
     Generated using ONCVPSP code by D. R. Hamann
     Using radial grid of 1510 points,  6 beta functions with: 
                l(1) =   0
                l(2) =   0
                l(3) =   1
                l(4) =   1
                l(5) =   2
                l(6) =   2


     Atomic displacements:
     There are    3 irreducible representations

     Representation     1      2 modes -  To be done

     Representation     2      2 modes -  To be done

     Representation     3      2 modes -  To be done



     Alpha used in Ewald sum =   2.8000
     PHONON       :  56m 3.06s CPU  59m14.88s WALL



     Representation #   1 modes #   1   2

     Self-consistent Calculation

      iter #   1 total cpu time :  3560.2 secs   av.it.:   6.2
      thresh= 1.000E-02 alpha_mix =  0.700 |ddv_scf|^2 =  2.573E-07

      iter #   2 total cpu time :  3568.1 secs   av.it.:  11.8
      thresh= 5.072E-05 alpha_mix =  0.700 |ddv_scf|^2 =  2.868E-07

      iter #   3 total cpu time :  3575.5 secs   av.it.:  11.1
      thresh= 5.356E-05 alpha_mix =  0.700 |ddv_scf|^2 =  2.336E-09

      iter #   4 total cpu time :  3583.1 secs   av.it.:  11.2
      thresh= 4.834E-06 alpha_mix =  0.700 |ddv_scf|^2 =  4.740E-11

      iter #   5 total cpu time :  3591.6 secs   av.it.:  11.4
      thresh= 6.885E-07 alpha_mix =  0.700 |ddv_scf|^2 =  5.475E-13

      iter #   6 total cpu time :  3599.6 secs   av.it.:  11.6
      thresh= 7.399E-08 alpha_mix =  0.700 |ddv_scf|^2 =  1.096E-14

      iter #   7 total cpu time :  3607.2 secs   av.it.:  11.5
      thresh= 1.047E-08 alpha_mix =  0.700 |ddv_scf|^2 =  5.697E-16

     End of self-consistent calculation

     Convergence has been achieved 


     Representation #   2 modes #   3   4

     Self-consistent Calculation

      iter #   1 total cpu time :  3612.4 secs   av.it.:   6.4
      thresh= 1.000E-02 alpha_mix =  0.700 |ddv_scf|^2 =  4.664E-07

      iter #   2 total cpu time :  3620.7 secs   av.it.:  11.8
      thresh= 6.830E-05 alpha_mix =  0.700 |ddv_scf|^2 =  5.230E-07

      iter #   3 total cpu time :  3629.0 secs   av.it.:  11.1
      thresh= 7.232E-05 alpha_mix =  0.700 |ddv_scf|^2 =  4.520E-09

      iter #   4 total cpu time :  3636.5 secs   av.it.:  11.2
      thresh= 6.723E-06 alpha_mix =  0.700 |ddv_scf|^2 =  4.716E-11

      iter #   5 total cpu time :  3644.1 secs   av.it.:  11.4
      thresh= 6.867E-07 alpha_mix =  0.700 |ddv_scf|^2 =  1.075E-12

      iter #   6 total cpu time :  3652.9 secs   av.it.:  11.7
      thresh= 1.037E-07 alpha_mix =  0.700 |ddv_scf|^2 =  8.535E-15

      iter #   7 total cpu time :  3660.6 secs   av.it.:  11.6
      thresh= 9.238E-09 alpha_mix =  0.700 |ddv_scf|^2 =  5.353E-16

     End of self-consistent calculation

     Convergence has been achieved 


     Representation #   3 modes #   5   6

     Self-consistent Calculation

      iter #   1 total cpu time :  3665.7 secs   av.it.:   6.5
      thresh= 1.000E-02 alpha_mix =  0.700 |ddv_scf|^2 =  6.178E-07

      iter #   2 total cpu time :  3673.5 secs   av.it.:  11.6
      thresh= 7.860E-05 alpha_mix =  0.700 |ddv_scf|^2 =  6.781E-07

      iter #   3 total cpu time :  3680.9 secs   av.it.:  11.0
      thresh= 8.235E-05 alpha_mix =  0.700 |ddv_scf|^2 =  5.472E-09

      iter #   4 total cpu time :  3689.0 secs   av.it.:  11.1
      thresh= 7.397E-06 alpha_mix =  0.700 |ddv_scf|^2 =  3.716E-11

      iter #   5 total cpu time :  3696.6 secs   av.it.:  11.4
      thresh= 6.096E-07 alpha_mix =  0.700 |ddv_scf|^2 =  3.527E-13

      iter #   6 total cpu time :  3704.3 secs   av.it.:  11.5
      thresh= 5.939E-08 alpha_mix =  0.700 |ddv_scf|^2 =  6.195E-15

      iter #   7 total cpu time :  3712.0 secs   av.it.:  11.4
      thresh= 7.871E-09 alpha_mix =  0.700 |ddv_scf|^2 =  3.715E-16

     End of self-consistent calculation

     Convergence has been achieved 
 
     Number of q in the star =   12
     List of q in the star:
          1  -0.333333333  -1.000000000   0.000000000
          2   0.000000000  -1.000000000  -0.333333333
          3   0.000000000  -1.000000000   0.333333333
          4   0.333333333  -1.000000000   0.000000000
          5  -1.000000000   0.000000000  -0.333333333
          6   1.000000000   0.000000000   0.333333333
          7   0.000000000   0.333333333   1.000000000
          8   0.000000000  -0.333333333  -1.000000000
          9  -1.000000000  -0.333333333   0.000000000
         10   1.000000000   0.333333333   0.000000000
         11  -0.333333333   0.000000000   1.000000000
         12   0.333333333   0.000000000   1.000000000

     Diagonalizing the dynamical matrix

     q = (   -0.333333333  -1.000000000   0.000000000 ) 

 **************************************************************************
     freq (    1) =       5.494054 [THz] =     183.261906 [cm-1]
     freq (    2) =       5.494054 [THz] =     183.261906 [cm-1]
     freq (    3) =      10.966357 [THz] =     365.798307 [cm-1]
     freq (    4) =      10.966357 [THz] =     365.798307 [cm-1]
     freq (    5) =      14.002433 [THz] =     467.070873 [cm-1]
     freq (    6) =      14.002433 [THz] =     467.070873 [cm-1]
 **************************************************************************
 
     init_run     :      0.23s CPU      0.32s WALL (      15 calls)
     electrons    :    316.53s CPU    327.18s WALL (      15 calls)

     Called by init_run:
     wfcinit      :      0.00s CPU      0.02s WALL (      15 calls)
     potinit      :      0.03s CPU      0.03s WALL (      15 calls)
     hinit0       :      0.11s CPU      0.11s WALL (      15 calls)

     Called by electrons:
     c_bands      :    316.53s CPU    327.18s WALL (      15 calls)
     v_of_rho     :      0.01s CPU      0.01s WALL (      16 calls)

     Called by c_bands:
     init_us_2    :      9.67s CPU     10.04s WALL (  249313 calls)
     init_us_2:cp :      9.05s CPU      9.47s WALL (  249313 calls)
     cegterg      :    282.32s CPU    287.70s WALL (    8380 calls)

     Called by *egterg:
     cdiaghg      :    120.91s CPU    123.24s WALL (  115750 calls)
     h_psi        :   2495.58s CPU   2576.78s WALL ( 2451006 calls)
     g_psi        :      0.41s CPU      0.42s WALL (  107370 calls)

     Called by h_psi:
     h_psi:calbec :    114.61s CPU    118.38s WALL ( 2451006 calls)
     vloc_psi     :   2314.58s CPU   2389.78s WALL ( 2451006 calls)
     add_vuspsi   :     45.17s CPU     47.32s WALL ( 2451006 calls)

     General routines
     calbec       :    189.94s CPU    198.14s WALL ( 4921378 calls)
     fft          :      0.79s CPU      0.84s WALL (    3929 calls)
     ffts         :      4.30s CPU      4.46s WALL (   25932 calls)
     fftw         :   2723.04s CPU   2811.60s WALL (20899884 calls)
     davcio       :      9.81s CPU     39.90s WALL ( 1051556 calls)
 
     Parallel routines
 
     PHONON       :  58m31.27s CPU      1h 1m WALL

     INITIALIZATION: 
     phq_setup    :      0.03s CPU      0.47s WALL (      16 calls)
     phq_init     :      3.98s CPU      4.37s WALL (      16 calls)
 
     phq_init     :      3.98s CPU      4.37s WALL (      16 calls)
     set_drhoc    :      0.33s CPU      0.34s WALL (      48 calls)
     init_vloc    :      0.03s CPU      0.03s WALL (      16 calls)
     init_us_1    :      0.03s CPU      0.03s WALL (      16 calls)
     init_us_2    :      9.67s CPU     10.04s WALL (  249313 calls)
 
     DYNAMICAL MATRIX:
     dynmat0      :      2.80s CPU      3.14s WALL (      16 calls)
     phqscf       :   3178.90s CPU   3354.38s WALL (      16 calls)
     dynmatrix    :      0.05s CPU      0.11s WALL (      16 calls)
 
     phqscf       :   3178.90s CPU   3354.38s WALL (      16 calls)
     solve_linter :   3173.01s CPU   3346.45s WALL (      76 calls)
     drhodv       :      5.82s CPU      6.22s WALL (      76 calls)
 
     dynmat0      :      2.80s CPU      3.14s WALL (      16 calls)
     dynmat_us    :      2.56s CPU      2.64s WALL (      16 calls)
     d2ionq       :      0.00s CPU      0.01s WALL (      16 calls)
     dynmatcc     :      0.23s CPU      0.23s WALL (      16 calls)
 
     dynmat_us    :      2.56s CPU      2.64s WALL (      16 calls)
 
     phqscf       :   3178.90s CPU   3354.38s WALL (      16 calls)
     solve_linter :   3173.01s CPU   3346.45s WALL (      76 calls)
 
     solve_linter :   3173.01s CPU   3346.45s WALL (      76 calls)
     dvqpsi_us    :     34.21s CPU     35.40s WALL (   25476 calls)
     sth_kernel   :   3116.39s CPU   3244.78s WALL (     583 calls)
     apply_dpot_b :    186.60s CPU    193.90s WALL (  175859 calls)
     ortho        :      7.49s CPU      7.80s WALL (  201335 calls)
     cgsolve      :   2609.73s CPU   2696.84s WALL (  201335 calls)
     incdrhoscf   :    291.31s CPU    299.27s WALL (  201251 calls)
     dv_of_drho   :      0.43s CPU      0.43s WALL (     710 calls)
     mix_pot      :      3.83s CPU     30.76s WALL (     583 calls)
     psymdvscf    :      8.43s CPU      8.52s WALL (     578 calls)
 
     dvqpsi_us    :     34.21s CPU     35.40s WALL (   25476 calls)
     dvqpsi_us_on :      3.19s CPU      3.30s WALL (   25476 calls)
 
     cgsolve      :   2609.73s CPU   2696.84s WALL (  201335 calls)
     ch_psi       :   2529.45s CPU   2612.72s WALL ( 2326876 calls)
 
     ch_psi       :   2529.45s CPU   2612.72s WALL ( 2326876 calls)
     h_psi        :   2495.58s CPU   2576.78s WALL ( 2451006 calls)
     last         :    145.09s CPU    150.17s WALL ( 2326876 calls)
 
     h_psi        :   2495.58s CPU   2576.78s WALL ( 2451006 calls)
     add_vuspsi   :     45.17s CPU     47.32s WALL ( 2451006 calls)
 
     incdrhoscf   :    291.31s CPU    299.27s WALL (  201251 calls)
 
 
      General routines
     calbec       :    189.94s CPU    198.14s WALL ( 4921378 calls)
     fft          :      0.79s CPU      0.84s WALL (    3929 calls)
     ffts         :      4.30s CPU      4.46s WALL (   25932 calls)
     fftw         :   2723.04s CPU   2811.60s WALL (20899884 calls)
     davcio       :      9.81s CPU     39.90s WALL ( 1051556 calls)
     write_rec    :      0.42s CPU     18.67s WALL (     659 calls)
 
 
     PHONON       :  58m31.27s CPU      1h 1m WALL

 
   This run was terminated on:  20: 0:50  27Jun2022            

=------------------------------------------------------------------------------=
   JOB DONE.
=------------------------------------------------------------------------------=
real 3716.90
user 70651.54
sys 2045.61
