Module for intel-oneAPI 2021.4 loaded.
 
:: initializing oneAPI environment ...
   3071227: BASH_VERSION = 4.4.20(1)-release
:: advisor -- latest
:: ccl -- latest
:: clck -- latest
:: compiler -- latest
:: dal -- latest
:: debugger -- latest
:: dev-utilities -- latest
:: dnnl -- latest
:: dpcpp-ct -- latest
:: dpl -- latest
:: inspector -- latest
:: intelpython -- latest
:: ipp -- latest
:: ippcp -- latest
:: ipp -- latest
:: itac -- latest
:: LPOT -- latest
:: mkl -- latest
:: modelzoo -- latest
:: mpi -- latest
:: pytorch -- latest
:: tbb -- latest
:: tensorflow -- latest
:: vpl -- latest
:: vtune -- latest
:: oneAPI environment initialized ::
 

     Program PWSCF v.7.0 starts on 27Jun2022 at 16:15:50 

     This program is part of the open-source Quantum ESPRESSO suite
     for quantum simulation of materials; please cite
         "P. Giannozzi et al., J. Phys.:Condens. Matter 21 395502 (2009);
         "P. Giannozzi et al., J. Phys.:Condens. Matter 29 465901 (2017);
         "P. Giannozzi et al., J. Chem. Phys. 152 154105 (2020);
          URL http://www.quantum-espresso.org", 
     in publications or presentations arising from this work. More details at
     http://www.quantum-espresso.org/quote

     Parallel version (MPI), running on    32 processors

     MPI processes distributed on     2 nodes
     R & G space division:  proc/nbgrp/npool/nimage =      32
     59141 MiB available memory on the printing compute node when the environment starts
 
     Reading input from in_files/silicon_ph_bench_nd_16_n_procs_32_2.scf

     Current dimensions of program PWSCF are:
     Max number of different atomic species (ntypx) = 10
     Max number of k-points (npk) =  40000
     Max angular momentum in pseudopotentials (lmaxx) =  4

     Subspace diagonalization in iterative solution of the eigenvalue problem:
     one sub-group per band group will be used
     scalapack distributed-memory algorithm (size of sub-group:  4*  4 procs)

 
     Parallelization info
     --------------------
     sticks:   dense  smooth     PW     G-vecs:    dense   smooth      PW
     Min          31      31      9                  651      651     107
     Max          32      32     10                  654      654     111
     Sum        1003    1003    301                20875    20875    3479
 
     Using Slab Decomposition
 


     bravais-lattice index     =            2
     lattice parameter (alat)  =      10.1899  a.u.
     unit-cell volume          =     264.5151 (a.u.)^3
     number of atoms/cell      =            2
     number of atomic types    =            1
     number of electrons       =         8.00
     number of Kohn-Sham states=            4
     kinetic-energy cutoff     =      70.0000  Ry
     charge density cutoff     =     280.0000  Ry
     scf convergence threshold =      1.0E-10
     mixing beta               =       0.7000
     number of iterations used =            8  plain     mixing
     Exchange-correlation= SLA  PW   NOGX NOGC
                           (   1   4   0   0   0   0   0)

     celldm(1)=  10.189905  celldm(2)=   0.000000  celldm(3)=   0.000000
     celldm(4)=   0.000000  celldm(5)=   0.000000  celldm(6)=   0.000000

     crystal axes: (cart. coord. in units of alat)
               a(1) = (  -0.500000   0.000000   0.500000 )  
               a(2) = (   0.000000   0.500000   0.500000 )  
               a(3) = (  -0.500000   0.500000   0.000000 )  

     reciprocal axes: (cart. coord. in units 2 pi/alat)
               b(1) = ( -1.000000 -1.000000  1.000000 )  
               b(2) = (  1.000000  1.000000  1.000000 )  
               b(3) = ( -1.000000  1.000000 -1.000000 )  


     PseudoPot. # 1 for Si read from file:
     ./pseudos/Si.nc.UPF
     MD5 check sum: 9e2d726316af3d4752eea8ab0afbb951
     Pseudo is Norm-conserving + core correction, Zval =  4.0
     Generated using ONCVPSP code by D. R. Hamann
     Using radial grid of 1510 points,  6 beta functions with: 
                l(1) =   0
                l(2) =   0
                l(3) =   1
                l(4) =   1
                l(5) =   2
                l(6) =   2

     atomic species   valence    mass     pseudopotential
        Si             4.00    28.08550     Si( 1.00)

     48 Sym. Ops., with inversion, found (24 have fractional translation)



   Cartesian axes

     site n.     atom                  positions (alat units)
         1           Si  tau(   1) = (   0.0000000   0.0000000   0.0000000  )
         2           Si  tau(   2) = (  -0.2500000   0.2500000   0.2500000  )

     number of k points=    28
                       cart. coord. in units 2pi/alat
        k(    1) = (  -0.0833333   0.0833333   0.0833333), wk =   0.0185185
        k(    2) = (  -0.2500000   0.2500000  -0.0833333), wk =   0.0555556
        k(    3) = (  -0.4166667   0.4166667  -0.2500000), wk =   0.0555556
        k(    4) = (   0.4166667  -0.4166667   0.5833333), wk =   0.0555556
        k(    5) = (   0.2500000  -0.2500000   0.4166667), wk =   0.0555556
        k(    6) = (   0.0833333  -0.0833333   0.2500000), wk =   0.0555556
        k(    7) = (  -0.0833333   0.4166667   0.0833333), wk =   0.0555556
        k(    8) = (  -0.2500000   0.5833333  -0.0833333), wk =   0.1111111
        k(    9) = (   0.5833333  -0.2500000   0.7500000), wk =   0.1111111
        k(   10) = (   0.4166667  -0.0833333   0.5833333), wk =   0.1111111
        k(   11) = (   0.2500000   0.0833333   0.4166667), wk =   0.1111111
        k(   12) = (  -0.0833333   0.7500000   0.0833333), wk =   0.0555556
        k(   13) = (   0.7500000  -0.0833333   0.9166667), wk =   0.1111111
        k(   14) = (   0.5833333   0.0833333   0.7500000), wk =   0.1111111
        k(   15) = (   0.4166667   0.2500000   0.5833333), wk =   0.1111111
        k(   16) = (  -0.0833333  -0.9166667   0.0833333), wk =   0.0555556
        k(   17) = (  -0.2500000  -0.7500000  -0.0833333), wk =   0.1111111
        k(   18) = (  -0.0833333  -0.5833333   0.0833333), wk =   0.0555556
        k(   19) = (  -0.2500000   0.2500000   0.2500000), wk =   0.0185185
        k(   20) = (  -0.4166667   0.4166667   0.0833333), wk =   0.0555556
        k(   21) = (   0.4166667  -0.4166667   0.9166667), wk =   0.0555556
        k(   22) = (   0.2500000  -0.2500000   0.7500000), wk =   0.0555556
        k(   23) = (  -0.2500000   0.5833333   0.2500000), wk =   0.0555556
        k(   24) = (   0.5833333  -0.2500000   1.0833333), wk =   0.1111111
        k(   25) = (   0.4166667  -0.0833333   0.9166667), wk =   0.1111111
        k(   26) = (  -0.2500000  -1.0833333   0.2500000), wk =   0.0555556
        k(   27) = (  -0.4166667   0.4166667   0.4166667), wk =   0.0185185
        k(   28) = (   0.4166667  -0.4166667   1.2500000), wk =   0.0555556

     Dense  grid:    20875 G-vectors     FFT dimensions: (  40,  40,  40)

     Estimated max dynamical RAM per process >       2.04 MB

     Estimated total dynamical RAM >      65.42 MB

     Initial potential from superposition of free atoms

     starting charge       7.9989, renormalised to       8.0000
     Starting wfcs are    8 randomized atomic wfcs

     total cpu time spent up to now is        1.1 secs

     Self-consistent Calculation

     iteration #  1     ecut=    70.00 Ry     beta= 0.70
     Davidson diagonalization with overlap
     ethr =  1.00E-02,  avg # of iterations =  2.0

     Threshold (ethr) on eigenvalues was too large:
     Diagonalizing with lowered threshold

     Davidson diagonalization with overlap
     ethr =  6.12E-04,  avg # of iterations =  2.0

     total cpu time spent up to now is        1.7 secs

     total energy              =     -17.04763833 Ry
     estimated scf accuracy    <       0.05795267 Ry

     iteration #  2     ecut=    70.00 Ry     beta= 0.70
     Davidson diagonalization with overlap
     ethr =  7.24E-04,  avg # of iterations =  1.0

     total cpu time spent up to now is        1.9 secs

     total energy              =     -17.04995882 Ry
     estimated scf accuracy    <       0.00249508 Ry

     iteration #  3     ecut=    70.00 Ry     beta= 0.70
     Davidson diagonalization with overlap
     ethr =  3.12E-05,  avg # of iterations =  3.1

     total cpu time spent up to now is        2.3 secs

     total energy              =     -17.05082881 Ry
     estimated scf accuracy    <       0.00009714 Ry

     iteration #  4     ecut=    70.00 Ry     beta= 0.70
     Davidson diagonalization with overlap
     ethr =  1.21E-06,  avg # of iterations =  4.2

     total cpu time spent up to now is        2.7 secs

     total energy              =     -17.05089770 Ry
     estimated scf accuracy    <       0.00000373 Ry

     iteration #  5     ecut=    70.00 Ry     beta= 0.70
     Davidson diagonalization with overlap
     ethr =  4.67E-08,  avg # of iterations =  4.6

     total cpu time spent up to now is        3.2 secs

     total energy              =     -17.05090098 Ry
     estimated scf accuracy    <       0.00000017 Ry

     iteration #  6     ecut=    70.00 Ry     beta= 0.70
     Davidson diagonalization with overlap
     ethr =  2.15E-09,  avg # of iterations =  3.4

     total cpu time spent up to now is        3.6 secs

     total energy              =     -17.05090106 Ry
     estimated scf accuracy    <       0.00000001 Ry

     iteration #  7     ecut=    70.00 Ry     beta= 0.70
     Davidson diagonalization with overlap
     ethr =  1.63E-10,  avg # of iterations =  3.7

     total cpu time spent up to now is        4.1 secs

     End of self-consistent calculation

          k =-0.0833 0.0833 0.0833 (  2667 PWs)   bands (ev):

    -5.7561   5.3866   6.1106   6.1106

          k =-0.2500 0.2500-0.0833 (  2621 PWs)   bands (ev):

    -5.2692   3.2787   4.8359   5.9020

          k =-0.4167 0.4167-0.2500 (  2618 PWs)   bands (ev):

    -4.1491   0.4558   4.3704   5.2525

          k = 0.4167-0.4167 0.5833 (  2604 PWs)   bands (ev):

    -3.4238  -0.7235   4.4440   4.8612

          k = 0.2500-0.2500 0.4167 (  2618 PWs)   bands (ev):

    -4.5725   1.3222   4.9163   4.9543

          k = 0.0833-0.0833 0.2500 (  2643 PWs)   bands (ev):

    -5.5104   4.3092   5.4447   5.6431

          k =-0.0833 0.4167 0.0833 (  2627 PWs)   bands (ev):

    -5.0231   3.1094   4.6844   4.6977

          k =-0.2500 0.5833-0.0833 (  2613 PWs)   bands (ev):

    -4.0918   1.2428   3.3199   4.3008

          k = 0.5833-0.2500 0.7500 (  2616 PWs)   bands (ev):

    -2.9383  -0.5645   2.7090   4.0652

          k = 0.4167-0.0833 0.5833 (  2617 PWs)   bands (ev):

    -3.6856   0.5301   2.6549   4.5685

          k = 0.2500 0.0833 0.4167 (  2624 PWs)   bands (ev):

    -4.7922   2.2460   4.0374   5.2604

          k =-0.0833 0.7500 0.0833 (  2617 PWs)   bands (ev):

    -3.3664   0.4197   3.2861   3.6484

          k = 0.7500-0.0833 0.9167 (  2608 PWs)   bands (ev):

    -2.1400  -0.9430   2.4039   3.2177

          k = 0.5833 0.0833 0.7500 (  2608 PWs)   bands (ev):

    -2.5099  -0.6178   1.9049   3.7798

          k = 0.4167 0.2500 0.5833 (  2622 PWs)   bands (ev):

    -3.5664  -0.1967   3.6417   4.6731

          k =-0.0833-0.9167 0.0833 (  2604 PWs)   bands (ev):

    -2.2385  -0.9535   3.0091   3.4291

          k =-0.2500-0.7500-0.0833 (  2615 PWs)   bands (ev):

    -3.1914   0.1893   2.7413   3.5675

          k =-0.0833-0.5833 0.0833 (  2620 PWs)   bands (ev):

    -4.3033   1.8031   3.8480   4.0788

          k =-0.2500 0.2500 0.2500 (  2632 PWs)   bands (ev):

    -5.0343   2.2731   5.4857   5.4857

          k =-0.4167 0.4167 0.0833 (  2620 PWs)   bands (ev):

    -4.3392   1.3430   3.2813   5.3165

          k = 0.4167-0.4167 0.9167 (  2613 PWs)   bands (ev):

    -3.1274  -0.1140   2.1362   4.5076

          k = 0.2500-0.2500 0.7500 (  2618 PWs)   bands (ev):

    -3.0761  -0.1941   2.6355   4.0115

          k =-0.2500 0.5833 0.2500 (  2613 PWs)   bands (ev):

    -3.9042   0.5133   3.7736   4.3933

          k = 0.5833-0.2500 1.0833 (  2619 PWs)   bands (ev):

    -2.8765  -0.2149   2.2381   3.5572

          k = 0.4167-0.0833 0.9167 (  2613 PWs)   bands (ev):

    -2.0245  -0.9506   2.0592   2.8637

          k =-0.2500-1.0833 0.2500 (  2605 PWs)   bands (ev):

    -2.2385  -0.8649   1.9289   3.8127

          k =-0.4167 0.4167 0.4167 (  2602 PWs)   bands (ev):

    -3.8074  -0.3119   5.0941   5.0941

          k = 0.4167-0.4167 1.2500 (  2605 PWs)   bands (ev):

    -3.1840  -0.6106   3.2018   4.6388

     highest occupied level (ev):     6.1106

!    total energy              =     -17.05090107 Ry
     estimated scf accuracy    <          6.8E-11 Ry

     The total energy is the sum of the following terms:
     one-electron contribution =       5.01080664 Ry
     hartree contribution      =       1.07710344 Ry
     xc contribution           =      -6.22230986 Ry
     ewald contribution        =     -16.91650128 Ry

     convergence has been achieved in   7 iterations

     Forces acting on atoms (cartesian axes, Ry/au):

     atom    1 type  1   force =     0.00000000    0.00000000    0.00000000
     atom    2 type  1   force =     0.00000000    0.00000000   -0.00000000

     Total force =     0.000000     Total SCF correction =     0.000000

     Writing all to output data dir /fastscratch/tsievers/QE_TMP_DIR/silicon_ph_bench_nd_16_n_procs_32_2.save/
 
     init_run     :      0.18s CPU      0.20s WALL (       1 calls)
     electrons    :      2.94s CPU      3.00s WALL (       1 calls)
     forces       :      0.01s CPU      0.01s WALL (       1 calls)

     Called by init_run:
     wfcinit      :      0.15s CPU      0.15s WALL (       1 calls)
     potinit      :      0.00s CPU      0.00s WALL (       1 calls)
     hinit0       :      0.02s CPU      0.04s WALL (       1 calls)

     Called by electrons:
     c_bands      :      2.73s CPU      2.77s WALL (       8 calls)
     sum_band     :      0.20s CPU      0.20s WALL (       8 calls)
     v_of_rho     :      0.00s CPU      0.01s WALL (       8 calls)
     mix_rho      :      0.00s CPU      0.00s WALL (       8 calls)

     Called by c_bands:
     init_us_2    :      0.02s CPU      0.02s WALL (     504 calls)
     init_us_2:cp :      0.02s CPU      0.02s WALL (     504 calls)
     cegterg      :      2.65s CPU      2.70s WALL (     224 calls)

     Called by *egterg:
     cdiaghg      :      1.01s CPU      1.03s WALL (     868 calls)
     h_psi        :      1.33s CPU      1.35s WALL (     924 calls)
     g_psi        :      0.00s CPU      0.00s WALL (     672 calls)

     Called by h_psi:
     h_psi:calbec :      0.05s CPU      0.06s WALL (     924 calls)
     vloc_psi     :      1.25s CPU      1.27s WALL (     924 calls)
     add_vuspsi   :      0.02s CPU      0.02s WALL (     924 calls)

     General routines
     calbec       :      0.06s CPU      0.06s WALL (    1036 calls)
     fft          :      0.02s CPU      0.04s WALL (      28 calls)
     ffts         :      0.00s CPU      0.00s WALL (       8 calls)
     fftw         :      1.40s CPU      1.43s WALL (    7124 calls)
 
     Parallel routines
 
     PWSCF        :      3.30s CPU      4.88s WALL

 
   This run was terminated on:  16:15:55  27Jun2022            

=------------------------------------------------------------------------------=
   JOB DONE.
=------------------------------------------------------------------------------=

     Program PHONON v.7.0 starts on 27Jun2022 at 16:15:59 

     This program is part of the open-source Quantum ESPRESSO suite
     for quantum simulation of materials; please cite
         "P. Giannozzi et al., J. Phys.:Condens. Matter 21 395502 (2009);
         "P. Giannozzi et al., J. Phys.:Condens. Matter 29 465901 (2017);
         "P. Giannozzi et al., J. Chem. Phys. 152 154105 (2020);
          URL http://www.quantum-espresso.org", 
     in publications or presentations arising from this work. More details at
     http://www.quantum-espresso.org/quote

     Parallel version (MPI), running on    32 processors

     MPI processes distributed on     2 nodes
     R & G space division:  proc/nbgrp/npool/nimage =      32
     59134 MiB available memory on the printing compute node when the environment starts
 
     Reading input from in_files/silicon_ph_bench_nd_16_n_procs_32_2.ph
      Title line not specified: using 'default'.

     Reading xml data from directory:

     /fastscratch/tsievers/QE_TMP_DIR/silicon_ph_bench_nd_16_n_procs_32_2.save/

     IMPORTANT: XC functional enforced from input :
     Exchange-correlation= PW
                           (   1   4   0   0   0   0   0)
     Any further DFT definition will be discarded
     Please, verify this is what you really want

 
     Parallelization info
     --------------------
     sticks:   dense  smooth     PW     G-vecs:    dense   smooth      PW
     Min          31      31      9                  651      651     107
     Max          32      32     10                  654      654     111
     Sum        1003    1003    301                20875    20875    3479
 
     Using Slab Decomposition
 
     Reading collected, re-writing distributed wavefunctions


     Dynamical matrices for ( 6, 6, 6)  uniform grid of q-points
     (  16 q-points):
       N         xq(1)         xq(2)         xq(3) 
       1   0.000000000   0.000000000   0.000000000
       2  -0.166666667   0.166666667  -0.166666667
       3  -0.333333333   0.333333333  -0.333333333
       4   0.500000000  -0.500000000   0.500000000
       5   0.000000000   0.333333333   0.000000000
       6  -0.166666667   0.500000000  -0.166666667
       7   0.666666667  -0.333333333   0.666666667
       8   0.500000000  -0.166666667   0.500000000
       9   0.333333333   0.000000000   0.333333333
      10   0.000000000   0.666666667   0.000000000
      11   0.833333333  -0.166666667   0.833333333
      12   0.666666667  -0.000000000   0.666666667
      13   0.000000000  -1.000000000   0.000000000
      14   0.666666667  -0.333333333   1.000000000
      15   0.500000000  -0.166666667   0.833333333
      16  -0.333333333  -1.000000000   0.000000000

     Calculation of q =    0.0000000   0.0000000   0.0000000

     default                                                                    

     bravais-lattice index     =            2
     lattice parameter (alat)  =      10.1899  a.u.
     unit-cell volume          =     264.5151 (a.u.)^3
     number of atoms/cell      =            2
     number of atomic types    =            1
     kinetic-energy cut-off    =      70.0000  Ry
     charge density cut-off    =     280.0000  Ry
     convergence threshold     =      1.0E-15
     beta                      =       0.7000
     number of iterations used =            4
     Exchange-correlation= PW
                           (   1   4   0   0   0   0   0)


     celldm(1)=   10.18990  celldm(2)=    0.00000  celldm(3)=    0.00000
     celldm(4)=    0.00000  celldm(5)=    0.00000  celldm(6)=    0.00000

     crystal axes: (cart. coord. in units of alat)
               a(1) = ( -0.5000  0.0000  0.5000 )  
               a(2) = (  0.0000  0.5000  0.5000 )  
               a(3) = ( -0.5000  0.5000  0.0000 )  

     reciprocal axes: (cart. coord. in units 2 pi/alat)
               b(1) = ( -1.0000 -1.0000  1.0000 )  
               b(2) = (  1.0000  1.0000  1.0000 )  
               b(3) = ( -1.0000  1.0000 -1.0000 )  


     Atoms inside the unit cell: 

     Cartesian axes

     site n.  atom      mass           positions (alat units)
        1     Si  28.0855   tau(    1) = (    0.00000    0.00000    0.00000  )
        2     Si  28.0855   tau(    2) = (   -0.25000    0.25000    0.25000  )

     Computing dynamical matrix for 
                    q = (   0.0000000   0.0000000   0.0000000 )
 
     49 Sym.Ops. (with q -> -q+G )


     G cutoff =  736.4420  (    652 G-vectors)     FFT grid: ( 40, 40, 40)
     number of k points=    28

     PseudoPot. # 1 for Si read from file:
     ./pseudos/Si.nc.UPF
     MD5 check sum: 9e2d726316af3d4752eea8ab0afbb951
     Pseudo is Norm-conserving + core correction, Zval =  4.0
     Generated using ONCVPSP code by D. R. Hamann
     Using radial grid of 1510 points,  6 beta functions with: 
                l(1) =   0
                l(2) =   0
                l(3) =   1
                l(4) =   1
                l(5) =   2
                l(6) =   2

     Mode symmetry, O_h (m-3m)  point group:


     Electric field:
     Dielectric constant
     Born effective charges in two ways 


     Atomic displacements:
     There are    2 irreducible representations

     Representation     1      3 modes -  To be done

     Representation     2      3 modes -  To be done



     Alpha used in Ewald sum =   2.8000
     PHONON       :      0.38s CPU      1.92s WALL


     Electric Fields Calculation

      iter #   1 total cpu time :     6.8 secs   av.it.:   6.5
      thresh= 1.000E-02 alpha_mix =  0.700 |ddv_scf|^2 =  4.494E-08

      iter #   2 total cpu time :    10.6 secs   av.it.:  12.2
      thresh= 2.120E-05 alpha_mix =  0.700 |ddv_scf|^2 =  1.926E-09

      iter #   3 total cpu time :    13.9 secs   av.it.:  12.0
      thresh= 4.389E-06 alpha_mix =  0.700 |ddv_scf|^2 =  2.171E-11

      iter #   4 total cpu time :    17.1 secs   av.it.:  12.3
      thresh= 4.660E-07 alpha_mix =  0.700 |ddv_scf|^2 =  1.288E-13

      iter #   5 total cpu time :    19.4 secs   av.it.:  11.4
      thresh= 3.589E-08 alpha_mix =  0.700 |ddv_scf|^2 =  4.731E-17

     End of electric fields calculation

          Dielectric constant in cartesian axis 

          (      13.312111711      -0.000000000       0.000000000 )
          (      -0.000000000      13.312111711       0.000000000 )
          (       0.000000000       0.000000000      13.312111711 )

          Effective charges (d Force / dE) in cartesian axis without acoustic sum rule applied (asr)

           atom      1   Si Mean Z*:       -0.00677
      Ex  (       -0.00677       -0.00000        0.00000 )
      Ey  (       -0.00000       -0.00677        0.00000 )
      Ez  (        0.00000        0.00000       -0.00677 )
           atom      2   Si Mean Z*:       -0.00677
      Ex  (       -0.00677       -0.00000       -0.00000 )
      Ey  (       -0.00000       -0.00677        0.00000 )
      Ez  (       -0.00000        0.00000       -0.00677 )

          Effective charges Sum: Mean:       -0.01354
             -0.01354       -0.00000        0.00000
             -0.00000       -0.01354        0.00000
              0.00000        0.00000       -0.01354

          Effective charges (d Force / dE) in cartesian axis with asr applied: 
           atom      1   Si Mean Z*:        0.00000
      E*x (        0.00000       -0.00000        0.00000 )
      E*y (        0.00000        0.00000        0.00000 )
      E*z (        0.00000        0.00000        0.00000 )
           atom      2   Si Mean Z*:       -0.00000
      E*x (       -0.00000        0.00000       -0.00000 )
      E*y (        0.00000        0.00000       -0.00000 )
      E*z (       -0.00000       -0.00000       -0.00000 )


     Representation #   1 modes #   1   2   3

     Self-consistent Calculation

      iter #   1 total cpu time :    21.9 secs   av.it.:   5.8
      thresh= 1.000E-02 alpha_mix =  0.700 |ddv_scf|^2 =  6.479E-09

      iter #   2 total cpu time :    24.5 secs   av.it.:  12.1
      thresh= 8.049E-06 alpha_mix =  0.700 |ddv_scf|^2 =  1.456E-10

      iter #   3 total cpu time :    28.0 secs   av.it.:  12.1
      thresh= 1.207E-06 alpha_mix =  0.700 |ddv_scf|^2 =  5.435E-12

      iter #   4 total cpu time :    30.9 secs   av.it.:  11.9
      thresh= 2.331E-07 alpha_mix =  0.700 |ddv_scf|^2 =  1.760E-14

      iter #   5 total cpu time :    33.4 secs   av.it.:  12.2
      thresh= 1.327E-08 alpha_mix =  0.700 |ddv_scf|^2 =  8.178E-17

     End of self-consistent calculation

     Convergence has been achieved 


     Representation #   2 modes #   4   5   6

     Self-consistent Calculation

      iter #   1 total cpu time :    35.2 secs   av.it.:   6.0
      thresh= 1.000E-02 alpha_mix =  0.700 |ddv_scf|^2 =  4.676E-09

      iter #   2 total cpu time :    38.1 secs   av.it.:  12.4
      thresh= 6.838E-06 alpha_mix =  0.700 |ddv_scf|^2 =  1.682E-10

      iter #   3 total cpu time :    41.3 secs   av.it.:  12.3
      thresh= 1.297E-06 alpha_mix =  0.700 |ddv_scf|^2 =  7.655E-12

      iter #   4 total cpu time :    44.6 secs   av.it.:  12.2
      thresh= 2.767E-07 alpha_mix =  0.700 |ddv_scf|^2 =  1.370E-14

      iter #   5 total cpu time :    47.1 secs   av.it.:  12.3
      thresh= 1.171E-08 alpha_mix =  0.700 |ddv_scf|^2 =  3.668E-17

     End of self-consistent calculation

     Convergence has been achieved 
 
     Number of q in the star =    1
     List of q in the star:
          1   0.000000000   0.000000000   0.000000000

          Dielectric constant in cartesian axis 

          (      13.312111711      -0.000000000       0.000000000 )
          (      -0.000000000      13.312111711       0.000000000 )
          (       0.000000000       0.000000000      13.312111711 )

          Effective charges (d Force / dE) in cartesian axis without acoustic sum rule applied (asr)

           atom      1   Si Mean Z*:       -0.00677
      Ex  (       -0.00677       -0.00000        0.00000 )
      Ey  (       -0.00000       -0.00677        0.00000 )
      Ez  (        0.00000        0.00000       -0.00677 )
           atom      2   Si Mean Z*:       -0.00677
      Ex  (       -0.00677       -0.00000       -0.00000 )
      Ey  (       -0.00000       -0.00677        0.00000 )
      Ez  (       -0.00000        0.00000       -0.00677 )

          Effective charges Sum: Mean:       -0.01354
             -0.01354       -0.00000        0.00000
             -0.00000       -0.01354        0.00000
              0.00000        0.00000       -0.01354

          Effective charges (d Force / dE) in cartesian axis with asr applied: 
           atom      1   Si Mean Z*:        0.00000
      E*x (        0.00000       -0.00000        0.00000 )
      E*y (        0.00000        0.00000        0.00000 )
      E*z (        0.00000        0.00000        0.00000 )
           atom      2   Si Mean Z*:       -0.00000
      E*x (       -0.00000        0.00000       -0.00000 )
      E*y (        0.00000        0.00000       -0.00000 )
      E*z (       -0.00000       -0.00000       -0.00000 )

          Effective charges (d P / du) in cartesian axis 

           atom      1   Si 
      Px  (       -0.00684        0.00000       -0.00000 )
      Py  (       -0.00000       -0.00684       -0.00000 )
      Pz  (       -0.00000        0.00000       -0.00684 )
           atom      2   Si 
      Px  (       -0.00684       -0.00000       -0.00000 )
      Py  (       -0.00000       -0.00684        0.00000 )
      Pz  (       -0.00000        0.00000       -0.00684 )

     Diagonalizing the dynamical matrix

     q = (    0.000000000   0.000000000   0.000000000 ) 

 **************************************************************************
     freq (    1) =      -0.114381 [THz] =      -3.815336 [cm-1]
     freq (    2) =      -0.114381 [THz] =      -3.815336 [cm-1]
     freq (    3) =      -0.114381 [THz] =      -3.815336 [cm-1]
     freq (    4) =      15.412090 [THz] =     514.091974 [cm-1]
     freq (    5) =      15.412090 [THz] =     514.091974 [cm-1]
     freq (    6) =      15.412090 [THz] =     514.091974 [cm-1]
 **************************************************************************

     Mode symmetry, O_h (m-3m)  point group:

     freq (   1-   3) =         -3.8  [cm-1]   --> T_1u G_15  G_4- I  
     freq (   4-   6) =        514.1  [cm-1]   --> T_2g G_25' G_5+ R  

     Calculation of q =   -0.1666667   0.1666667  -0.1666667

     Subspace diagonalization in iterative solution of the eigenvalue problem:
     one sub-group per band group will be used
     scalapack distributed-memory algorithm (size of sub-group:  4*  4 procs)

 
     Parallelization info
     --------------------
     sticks:   dense  smooth     PW     G-vecs:    dense   smooth      PW
     Min          31      31      9                  651      651     113
     Max          32      32     10                  654      654     117
     Sum        1003    1003    313                20875    20875    3695
 
     Using Slab Decomposition
 

     Title: 
     default                                                                    


     bravais-lattice index     =            2
     lattice parameter (alat)  =      10.1899  a.u.
     unit-cell volume          =     264.5151 (a.u.)^3
     number of atoms/cell      =            2
     number of atomic types    =            1
     number of electrons       =         8.00
     number of Kohn-Sham states=            4
     kinetic-energy cutoff     =      70.0000  Ry
     charge density cutoff     =     280.0000  Ry
     Exchange-correlation= PW
                           (   1   4   0   0   0   0   0)

     celldm(1)=  10.189905  celldm(2)=   0.000000  celldm(3)=   0.000000
     celldm(4)=   0.000000  celldm(5)=   0.000000  celldm(6)=   0.000000

     crystal axes: (cart. coord. in units of alat)
               a(1) = (  -0.500000   0.000000   0.500000 )  
               a(2) = (   0.000000   0.500000   0.500000 )  
               a(3) = (  -0.500000   0.500000   0.000000 )  

     reciprocal axes: (cart. coord. in units 2 pi/alat)
               b(1) = ( -1.000000 -1.000000  1.000000 )  
               b(2) = (  1.000000  1.000000  1.000000 )  
               b(3) = ( -1.000000  1.000000 -1.000000 )  


     PseudoPot. # 1 for Si read from file:
     ./pseudos/Si.nc.UPF
     MD5 check sum: 9e2d726316af3d4752eea8ab0afbb951
     Pseudo is Norm-conserving + core correction, Zval =  4.0
     Generated using ONCVPSP code by D. R. Hamann
     Using radial grid of 1510 points,  6 beta functions with: 
                l(1) =   0
                l(2) =   0
                l(3) =   1
                l(4) =   1
                l(5) =   2
                l(6) =   2

     atomic species   valence    mass     pseudopotential
        Si             4.00    28.08550     Si( 1.00)

     48 Sym. Ops., with inversion, found



   Cartesian axes

     site n.     atom                  positions (alat units)
         1           Si  tau(   1) = (   0.0000000   0.0000000   0.0000000  )
         2           Si  tau(   2) = (  -0.2500000   0.2500000   0.2500000  )

     number of k points=   364

     Number of k-points >= 100: set verbosity='high' to print them.

     Dense  grid:    20875 G-vectors     FFT dimensions: (  40,  40,  40)

     Estimated max dynamical RAM per process >       1.75 MB

     Estimated total dynamical RAM >      55.96 MB

     The potential is recalculated from file :
     /fastscratch/tsievers/QE_TMP_DIR/_ph0/silicon_ph_bench_nd_16_n_procs_32_2.save/charge-density

     Starting wfcs are    8 atomic wfcs

     Band Structure Calculation
     Davidson diagonalization with overlap

     ethr =  1.25E-10,  avg # of iterations = 12.9

     total cpu time spent up to now is       22.7 secs

     End of band structure calculation

     Number of k-points >= 100: set verbosity='high' to print the bands.

     highest occupied level (ev):     6.1106

     Writing config to output data dir /fastscratch/tsievers/QE_TMP_DIR/_ph0/silicon_ph_bench_nd_16_n_procs_32_2.save/

     default                                                                    

     bravais-lattice index     =            2
     lattice parameter (alat)  =      10.1899  a.u.
     unit-cell volume          =     264.5151 (a.u.)^3
     number of atoms/cell      =            2
     number of atomic types    =            1
     kinetic-energy cut-off    =      70.0000  Ry
     charge density cut-off    =     280.0000  Ry
     convergence threshold     =      1.0E-15
     beta                      =       0.7000
     number of iterations used =            4
     Exchange-correlation= PW
                           (   1   4   0   0   0   0   0)


     celldm(1)=   10.18990  celldm(2)=    0.00000  celldm(3)=    0.00000
     celldm(4)=    0.00000  celldm(5)=    0.00000  celldm(6)=    0.00000

     crystal axes: (cart. coord. in units of alat)
               a(1) = ( -0.5000  0.0000  0.5000 )  
               a(2) = (  0.0000  0.5000  0.5000 )  
               a(3) = ( -0.5000  0.5000  0.0000 )  

     reciprocal axes: (cart. coord. in units 2 pi/alat)
               b(1) = ( -1.0000 -1.0000  1.0000 )  
               b(2) = (  1.0000  1.0000  1.0000 )  
               b(3) = ( -1.0000  1.0000 -1.0000 )  


     Atoms inside the unit cell: 

     Cartesian axes

     site n.  atom      mass           positions (alat units)
        1     Si  28.0855   tau(    1) = (    0.00000    0.00000    0.00000  )
        2     Si  28.0855   tau(    2) = (   -0.25000    0.25000    0.25000  )

     Computing dynamical matrix for 
                    q = (  -0.1666667   0.1666667  -0.1666667 )
 
      6 Sym.Ops. (no q -> -q+G )


     G cutoff =  736.4420  (    652 G-vectors)     FFT grid: ( 40, 40, 40)
     number of k points=   364

     PseudoPot. # 1 for Si read from file:
     ./pseudos/Si.nc.UPF
     MD5 check sum: 9e2d726316af3d4752eea8ab0afbb951
     Pseudo is Norm-conserving + core correction, Zval =  4.0
     Generated using ONCVPSP code by D. R. Hamann
     Using radial grid of 1510 points,  6 beta functions with: 
                l(1) =   0
                l(2) =   0
                l(3) =   1
                l(4) =   1
                l(5) =   2
                l(6) =   2

     Mode symmetry, C_3v (3m)   point group:


     Atomic displacements:
     There are    4 irreducible representations

     Representation     1      1 modes -  To be done

     Representation     2      1 modes -  To be done

     Representation     3      2 modes -  To be done

     Representation     4      2 modes -  To be done



     Alpha used in Ewald sum =   2.8000
     PHONON       :   1m 3.05s CPU   1m10.83s WALL



     Representation #   1 mode #   1

     Self-consistent Calculation

      iter #   1 total cpu time :    73.7 secs   av.it.:   6.6
      thresh= 1.000E-02 alpha_mix =  0.700 |ddv_scf|^2 =  6.062E-04

      iter #   2 total cpu time :    78.2 secs   av.it.:   9.3
      thresh= 2.462E-03 alpha_mix =  0.700 |ddv_scf|^2 =  1.986E-02

      iter #   3 total cpu time :    81.5 secs   av.it.:   7.7
      thresh= 1.000E-02 alpha_mix =  0.700 |ddv_scf|^2 =  1.614E-07

      iter #   4 total cpu time :    86.5 secs   av.it.:   9.5
      thresh= 4.018E-05 alpha_mix =  0.700 |ddv_scf|^2 =  5.290E-09

      iter #   5 total cpu time :    90.3 secs   av.it.:  10.0
      thresh= 7.273E-06 alpha_mix =  0.700 |ddv_scf|^2 =  1.506E-10

      iter #   6 total cpu time :    94.0 secs   av.it.:   9.5
      thresh= 1.227E-06 alpha_mix =  0.700 |ddv_scf|^2 =  6.445E-11

      iter #   7 total cpu time :    97.3 secs   av.it.:   8.4
      thresh= 8.028E-07 alpha_mix =  0.700 |ddv_scf|^2 =  6.987E-11

      iter #   8 total cpu time :   100.7 secs   av.it.:   8.4
      thresh= 8.359E-07 alpha_mix =  0.700 |ddv_scf|^2 =  2.809E-13

      iter #   9 total cpu time :   106.2 secs   av.it.:   8.8
      thresh= 5.300E-08 alpha_mix =  0.700 |ddv_scf|^2 =  6.119E-15

      iter #  10 total cpu time :   110.2 secs   av.it.:   9.1
      thresh= 7.822E-09 alpha_mix =  0.700 |ddv_scf|^2 =  7.496E-16

     End of self-consistent calculation

     Convergence has been achieved 


     Representation #   2 mode #   2

     Self-consistent Calculation

      iter #   1 total cpu time :   113.5 secs   av.it.:   6.6
      thresh= 1.000E-02 alpha_mix =  0.700 |ddv_scf|^2 =  6.062E-04

      iter #   2 total cpu time :   117.1 secs   av.it.:   9.3
      thresh= 2.462E-03 alpha_mix =  0.700 |ddv_scf|^2 =  1.986E-02

      iter #   3 total cpu time :   120.8 secs   av.it.:   7.7
      thresh= 1.000E-02 alpha_mix =  0.700 |ddv_scf|^2 =  1.614E-07

      iter #   4 total cpu time :   124.6 secs   av.it.:   9.5
      thresh= 4.018E-05 alpha_mix =  0.700 |ddv_scf|^2 =  5.290E-09

      iter #   5 total cpu time :   128.4 secs   av.it.:  10.0
      thresh= 7.273E-06 alpha_mix =  0.700 |ddv_scf|^2 =  1.506E-10

      iter #   6 total cpu time :   133.1 secs   av.it.:   9.5
      thresh= 1.227E-06 alpha_mix =  0.700 |ddv_scf|^2 =  6.444E-11

      iter #   7 total cpu time :   138.7 secs   av.it.:   8.4
      thresh= 8.028E-07 alpha_mix =  0.700 |ddv_scf|^2 =  6.988E-11

      iter #   8 total cpu time :   142.1 secs   av.it.:   8.4
      thresh= 8.359E-07 alpha_mix =  0.700 |ddv_scf|^2 =  2.809E-13

      iter #   9 total cpu time :   145.6 secs   av.it.:   8.8
      thresh= 5.300E-08 alpha_mix =  0.700 |ddv_scf|^2 =  6.118E-15

      iter #  10 total cpu time :   149.4 secs   av.it.:   9.1
      thresh= 7.822E-09 alpha_mix =  0.700 |ddv_scf|^2 =  7.496E-16

     End of self-consistent calculation

     Convergence has been achieved 


     Representation #   3 modes #   3   4

     Self-consistent Calculation

      iter #   1 total cpu time :   154.9 secs   av.it.:   6.1
      thresh= 1.000E-02 alpha_mix =  0.700 |ddv_scf|^2 =  1.581E-08

      iter #   2 total cpu time :   163.7 secs   av.it.:  11.9
      thresh= 1.257E-05 alpha_mix =  0.700 |ddv_scf|^2 =  7.037E-10

      iter #   3 total cpu time :   175.5 secs   av.it.:  11.7
      thresh= 2.653E-06 alpha_mix =  0.700 |ddv_scf|^2 =  1.837E-11

      iter #   4 total cpu time :   184.2 secs   av.it.:  11.8
      thresh= 4.287E-07 alpha_mix =  0.700 |ddv_scf|^2 =  2.120E-13

      iter #   5 total cpu time :   193.1 secs   av.it.:  11.8
      thresh= 4.604E-08 alpha_mix =  0.700 |ddv_scf|^2 =  4.498E-15

      iter #   6 total cpu time :   202.8 secs   av.it.:  12.1
      thresh= 6.707E-09 alpha_mix =  0.700 |ddv_scf|^2 =  2.043E-17

     End of self-consistent calculation

     Convergence has been achieved 


     Representation #   4 modes #   5   6

     Self-consistent Calculation

      iter #   1 total cpu time :   208.8 secs   av.it.:   6.0
      thresh= 1.000E-02 alpha_mix =  0.700 |ddv_scf|^2 =  1.581E-08

      iter #   2 total cpu time :   219.0 secs   av.it.:  11.9
      thresh= 1.258E-05 alpha_mix =  0.700 |ddv_scf|^2 =  7.039E-10

      iter #   3 total cpu time :   228.8 secs   av.it.:  11.7
      thresh= 2.653E-06 alpha_mix =  0.700 |ddv_scf|^2 =  1.837E-11

      iter #   4 total cpu time :   238.6 secs   av.it.:  11.8
      thresh= 4.287E-07 alpha_mix =  0.700 |ddv_scf|^2 =  2.121E-13

      iter #   5 total cpu time :   249.4 secs   av.it.:  11.8
      thresh= 4.605E-08 alpha_mix =  0.700 |ddv_scf|^2 =  4.505E-15

      iter #   6 total cpu time :   261.1 secs   av.it.:  12.1
      thresh= 6.712E-09 alpha_mix =  0.700 |ddv_scf|^2 =  2.041E-17

     End of self-consistent calculation

     Convergence has been achieved 
 
     Number of q in the star =    8
     List of q in the star:
          1  -0.166666667   0.166666667  -0.166666667
          2   0.166666667   0.166666667   0.166666667
          3  -0.166666667  -0.166666667  -0.166666667
          4   0.166666667  -0.166666667   0.166666667
          5   0.166666667  -0.166666667  -0.166666667
          6   0.166666667   0.166666667  -0.166666667
          7  -0.166666667  -0.166666667   0.166666667
          8  -0.166666667   0.166666667   0.166666667

     Diagonalizing the dynamical matrix

     q = (   -0.166666667   0.166666667  -0.166666667 ) 

 **************************************************************************
     freq (    1) =       2.202632 [THz] =      73.471879 [cm-1]
     freq (    2) =       2.202632 [THz] =      73.471879 [cm-1]
     freq (    3) =       4.748443 [THz] =     158.391001 [cm-1]
     freq (    4) =      15.023971 [THz] =     501.145745 [cm-1]
     freq (    5) =      15.065870 [THz] =     502.543339 [cm-1]
     freq (    6) =      15.065870 [THz] =     502.543339 [cm-1]
 **************************************************************************

     Mode symmetry, C_3v (3m)   point group:

     freq (   1-   2) =         73.5  [cm-1]   --> E    L_3           
     freq (   3-   3) =        158.4  [cm-1]   --> A_1  L_1           
     freq (   4-   4) =        501.1  [cm-1]   --> A_1  L_1           
     freq (   5-   6) =        502.5  [cm-1]   --> E    L_3           

     Calculation of q =   -0.3333333   0.3333333  -0.3333333
 
     Parallelization info
     --------------------
     sticks:   dense  smooth     PW     G-vecs:    dense   smooth      PW
     Min          31      31      9                  651      651     116
     Max          32      32     10                  654      654     122
     Sum        1003    1003    313                20875    20875    3839
 
     Using Slab Decomposition
 

     Title: 
     default                                                                    


     bravais-lattice index     =            2
     lattice parameter (alat)  =      10.1899  a.u.
     unit-cell volume          =     264.5151 (a.u.)^3
     number of atoms/cell      =            2
     number of atomic types    =            1
     number of electrons       =         8.00
     number of Kohn-Sham states=            4
     kinetic-energy cutoff     =      70.0000  Ry
     charge density cutoff     =     280.0000  Ry
     Exchange-correlation= PW
                           (   1   4   0   0   0   0   0)

     celldm(1)=  10.189905  celldm(2)=   0.000000  celldm(3)=   0.000000
     celldm(4)=   0.000000  celldm(5)=   0.000000  celldm(6)=   0.000000

     crystal axes: (cart. coord. in units of alat)
               a(1) = (  -0.500000   0.000000   0.500000 )  
               a(2) = (   0.000000   0.500000   0.500000 )  
               a(3) = (  -0.500000   0.500000   0.000000 )  

     reciprocal axes: (cart. coord. in units 2 pi/alat)
               b(1) = ( -1.000000 -1.000000  1.000000 )  
               b(2) = (  1.000000  1.000000  1.000000 )  
               b(3) = ( -1.000000  1.000000 -1.000000 )  


     PseudoPot. # 1 for Si read from file:
     ./pseudos/Si.nc.UPF
     MD5 check sum: 9e2d726316af3d4752eea8ab0afbb951
     Pseudo is Norm-conserving + core correction, Zval =  4.0
     Generated using ONCVPSP code by D. R. Hamann
     Using radial grid of 1510 points,  6 beta functions with: 
                l(1) =   0
                l(2) =   0
                l(3) =   1
                l(4) =   1
                l(5) =   2
                l(6) =   2

     atomic species   valence    mass     pseudopotential
        Si             4.00    28.08550     Si( 1.00)

     48 Sym. Ops., with inversion, found



   Cartesian axes

     site n.     atom                  positions (alat units)
         1           Si  tau(   1) = (   0.0000000   0.0000000   0.0000000  )
         2           Si  tau(   2) = (  -0.2500000   0.2500000   0.2500000  )

     number of k points=   364

     Number of k-points >= 100: set verbosity='high' to print them.

     Dense  grid:    20875 G-vectors     FFT dimensions: (  40,  40,  40)

     Estimated max dynamical RAM per process >       1.76 MB

     Estimated total dynamical RAM >      56.39 MB

     The potential is recalculated from file :
     /fastscratch/tsievers/QE_TMP_DIR/_ph0/silicon_ph_bench_nd_16_n_procs_32_2.save/charge-density

     Starting wfcs are    8 atomic wfcs

     Band Structure Calculation
     Davidson diagonalization with overlap

     ethr =  1.25E-10,  avg # of iterations = 12.9

     total cpu time spent up to now is       42.2 secs

     End of band structure calculation

     Number of k-points >= 100: set verbosity='high' to print the bands.

     highest occupied level (ev):     6.1106

     Writing config to output data dir /fastscratch/tsievers/QE_TMP_DIR/_ph0/silicon_ph_bench_nd_16_n_procs_32_2.save/

     default                                                                    

     bravais-lattice index     =            2
     lattice parameter (alat)  =      10.1899  a.u.
     unit-cell volume          =     264.5151 (a.u.)^3
     number of atoms/cell      =            2
     number of atomic types    =            1
     kinetic-energy cut-off    =      70.0000  Ry
     charge density cut-off    =     280.0000  Ry
     convergence threshold     =      1.0E-15
     beta                      =       0.7000
     number of iterations used =            4
     Exchange-correlation= PW
                           (   1   4   0   0   0   0   0)


     celldm(1)=   10.18990  celldm(2)=    0.00000  celldm(3)=    0.00000
     celldm(4)=    0.00000  celldm(5)=    0.00000  celldm(6)=    0.00000

     crystal axes: (cart. coord. in units of alat)
               a(1) = ( -0.5000  0.0000  0.5000 )  
               a(2) = (  0.0000  0.5000  0.5000 )  
               a(3) = ( -0.5000  0.5000  0.0000 )  

     reciprocal axes: (cart. coord. in units 2 pi/alat)
               b(1) = ( -1.0000 -1.0000  1.0000 )  
               b(2) = (  1.0000  1.0000  1.0000 )  
               b(3) = ( -1.0000  1.0000 -1.0000 )  


     Atoms inside the unit cell: 

     Cartesian axes

     site n.  atom      mass           positions (alat units)
        1     Si  28.0855   tau(    1) = (    0.00000    0.00000    0.00000  )
        2     Si  28.0855   tau(    2) = (   -0.25000    0.25000    0.25000  )

     Computing dynamical matrix for 
                    q = (  -0.3333333   0.3333333  -0.3333333 )
 
      6 Sym.Ops. (no q -> -q+G )


     G cutoff =  736.4420  (    652 G-vectors)     FFT grid: ( 40, 40, 40)
     number of k points=   364

     PseudoPot. # 1 for Si read from file:
     ./pseudos/Si.nc.UPF
     MD5 check sum: 9e2d726316af3d4752eea8ab0afbb951
     Pseudo is Norm-conserving + core correction, Zval =  4.0
     Generated using ONCVPSP code by D. R. Hamann
     Using radial grid of 1510 points,  6 beta functions with: 
                l(1) =   0
                l(2) =   0
                l(3) =   1
                l(4) =   1
                l(5) =   2
                l(6) =   2

     Mode symmetry, C_3v (3m)   point group:


     Atomic displacements:
     There are    4 irreducible representations

     Representation     1      1 modes -  To be done

     Representation     2      1 modes -  To be done

     Representation     3      2 modes -  To be done

     Representation     4      2 modes -  To be done



     Alpha used in Ewald sum =   2.8000
     PHONON       :   4m15.61s CPU   4m44.39s WALL



     Representation #   1 mode #   1

     Self-consistent Calculation

      iter #   1 total cpu time :   287.2 secs   av.it.:   6.5
      thresh= 1.000E-02 alpha_mix =  0.700 |ddv_scf|^2 =  3.838E-05

      iter #   2 total cpu time :   291.1 secs   av.it.:  10.1
      thresh= 6.195E-04 alpha_mix =  0.700 |ddv_scf|^2 =  3.063E-04

      iter #   3 total cpu time :   294.5 secs   av.it.:   8.7
      thresh= 1.750E-03 alpha_mix =  0.700 |ddv_scf|^2 =  5.643E-08

      iter #   4 total cpu time :   298.8 secs   av.it.:  10.3
      thresh= 2.376E-05 alpha_mix =  0.700 |ddv_scf|^2 =  1.149E-09

      iter #   5 total cpu time :   304.2 secs   av.it.:  10.3
      thresh= 3.389E-06 alpha_mix =  0.700 |ddv_scf|^2 =  1.215E-11

      iter #   6 total cpu time :   308.3 secs   av.it.:  10.8
      thresh= 3.486E-07 alpha_mix =  0.700 |ddv_scf|^2 =  1.377E-12

      iter #   7 total cpu time :   312.5 secs   av.it.:  10.7
      thresh= 1.174E-07 alpha_mix =  0.700 |ddv_scf|^2 =  1.492E-12

      iter #   8 total cpu time :   316.8 secs   av.it.:   9.7
      thresh= 1.221E-07 alpha_mix =  0.700 |ddv_scf|^2 =  9.985E-13

      iter #   9 total cpu time :   321.6 secs   av.it.:   9.5
      thresh= 9.993E-08 alpha_mix =  0.700 |ddv_scf|^2 =  1.421E-13

      iter #  10 total cpu time :   325.3 secs   av.it.:   9.5
      thresh= 3.770E-08 alpha_mix =  0.700 |ddv_scf|^2 =  1.191E-15

      iter #  11 total cpu time :   329.3 secs   av.it.:  10.1
      thresh= 3.451E-09 alpha_mix =  0.700 |ddv_scf|^2 =  1.047E-16

     End of self-consistent calculation

     Convergence has been achieved 


     Representation #   2 mode #   2

     Self-consistent Calculation

      iter #   1 total cpu time :   332.6 secs   av.it.:   6.5
      thresh= 1.000E-02 alpha_mix =  0.700 |ddv_scf|^2 =  3.838E-05

      iter #   2 total cpu time :   336.9 secs   av.it.:  10.1
      thresh= 6.195E-04 alpha_mix =  0.700 |ddv_scf|^2 =  3.063E-04

      iter #   3 total cpu time :   340.4 secs   av.it.:   8.7
      thresh= 1.750E-03 alpha_mix =  0.700 |ddv_scf|^2 =  5.643E-08

      iter #   4 total cpu time :   344.3 secs   av.it.:  10.3
      thresh= 2.376E-05 alpha_mix =  0.700 |ddv_scf|^2 =  1.149E-09

      iter #   5 total cpu time :   349.3 secs   av.it.:  10.3
      thresh= 3.389E-06 alpha_mix =  0.700 |ddv_scf|^2 =  1.215E-11

      iter #   6 total cpu time :   355.8 secs   av.it.:  10.8
      thresh= 3.486E-07 alpha_mix =  0.700 |ddv_scf|^2 =  1.377E-12

      iter #   7 total cpu time :   361.3 secs   av.it.:  10.7
      thresh= 1.174E-07 alpha_mix =  0.700 |ddv_scf|^2 =  1.492E-12

      iter #   8 total cpu time :   365.1 secs   av.it.:   9.7
      thresh= 1.222E-07 alpha_mix =  0.700 |ddv_scf|^2 =  9.986E-13

      iter #   9 total cpu time :   368.8 secs   av.it.:   9.5
      thresh= 9.993E-08 alpha_mix =  0.700 |ddv_scf|^2 =  1.421E-13

      iter #  10 total cpu time :   372.5 secs   av.it.:   9.5
      thresh= 3.770E-08 alpha_mix =  0.700 |ddv_scf|^2 =  1.192E-15

      iter #  11 total cpu time :   376.6 secs   av.it.:  10.1
      thresh= 3.452E-09 alpha_mix =  0.700 |ddv_scf|^2 =  1.048E-16

     End of self-consistent calculation

     Convergence has been achieved 


     Representation #   3 modes #   3   4

     Self-consistent Calculation

      iter #   1 total cpu time :   382.7 secs   av.it.:   6.1
      thresh= 1.000E-02 alpha_mix =  0.700 |ddv_scf|^2 =  2.154E-08

      iter #   2 total cpu time :   391.4 secs   av.it.:  11.9
      thresh= 1.468E-05 alpha_mix =  0.700 |ddv_scf|^2 =  1.492E-09

      iter #   3 total cpu time :   400.1 secs   av.it.:  11.6
      thresh= 3.862E-06 alpha_mix =  0.700 |ddv_scf|^2 =  2.160E-11

      iter #   4 total cpu time :   409.2 secs   av.it.:  11.8
      thresh= 4.648E-07 alpha_mix =  0.700 |ddv_scf|^2 =  2.167E-13

      iter #   5 total cpu time :   418.4 secs   av.it.:  11.8
      thresh= 4.655E-08 alpha_mix =  0.700 |ddv_scf|^2 =  4.217E-15

      iter #   6 total cpu time :   428.9 secs   av.it.:  12.1
      thresh= 6.494E-09 alpha_mix =  0.700 |ddv_scf|^2 =  2.872E-17

     End of self-consistent calculation

     Convergence has been achieved 


     Representation #   4 modes #   5   6

     Self-consistent Calculation

      iter #   1 total cpu time :   434.5 secs   av.it.:   6.1
      thresh= 1.000E-02 alpha_mix =  0.700 |ddv_scf|^2 =  2.154E-08

      iter #   2 total cpu time :   445.1 secs   av.it.:  11.8
      thresh= 1.468E-05 alpha_mix =  0.700 |ddv_scf|^2 =  1.494E-09

      iter #   3 total cpu time :   454.5 secs   av.it.:  11.6
      thresh= 3.865E-06 alpha_mix =  0.700 |ddv_scf|^2 =  2.159E-11

      iter #   4 total cpu time :   464.2 secs   av.it.:  11.8
      thresh= 4.647E-07 alpha_mix =  0.700 |ddv_scf|^2 =  2.166E-13

      iter #   5 total cpu time :   473.8 secs   av.it.:  11.8
      thresh= 4.654E-08 alpha_mix =  0.700 |ddv_scf|^2 =  4.213E-15

      iter #   6 total cpu time :   482.9 secs   av.it.:  12.1
      thresh= 6.491E-09 alpha_mix =  0.700 |ddv_scf|^2 =  2.870E-17

     End of self-consistent calculation

     Convergence has been achieved 
 
     Number of q in the star =    8
     List of q in the star:
          1  -0.333333333   0.333333333  -0.333333333
          2   0.333333333   0.333333333   0.333333333
          3  -0.333333333  -0.333333333  -0.333333333
          4   0.333333333  -0.333333333   0.333333333
          5   0.333333333  -0.333333333  -0.333333333
          6   0.333333333   0.333333333  -0.333333333
          7  -0.333333333  -0.333333333   0.333333333
          8  -0.333333333   0.333333333   0.333333333

     Diagonalizing the dynamical matrix

     q = (   -0.333333333   0.333333333  -0.333333333 ) 

 **************************************************************************
     freq (    1) =       3.044018 [THz] =     101.537522 [cm-1]
     freq (    2) =       3.044018 [THz] =     101.537522 [cm-1]
     freq (    3) =       8.747588 [THz] =     291.788129 [cm-1]
     freq (    4) =      13.856884 [THz] =     462.215904 [cm-1]
     freq (    5) =      14.763280 [THz] =     492.450021 [cm-1]
     freq (    6) =      14.763280 [THz] =     492.450021 [cm-1]
 **************************************************************************

     Mode symmetry, C_3v (3m)   point group:

     freq (   1-   2) =        101.5  [cm-1]   --> E    L_3           
     freq (   3-   3) =        291.8  [cm-1]   --> A_1  L_1           
     freq (   4-   4) =        462.2  [cm-1]   --> A_1  L_1           
     freq (   5-   6) =        492.5  [cm-1]   --> E    L_3           

     Calculation of q =    0.5000000  -0.5000000   0.5000000
 
     Parallelization info
     --------------------
     sticks:   dense  smooth     PW     G-vecs:    dense   smooth      PW
     Min          31      31     10                  651      651     124
     Max          32      32     12                  654      654     126
     Sum        1003    1003    337                20875    20875    4015
 
     Using Slab Decomposition
 

     Title: 
     default                                                                    


     bravais-lattice index     =            2
     lattice parameter (alat)  =      10.1899  a.u.
     unit-cell volume          =     264.5151 (a.u.)^3
     number of atoms/cell      =            2
     number of atomic types    =            1
     number of electrons       =         8.00
     number of Kohn-Sham states=            4
     kinetic-energy cutoff     =      70.0000  Ry
     charge density cutoff     =     280.0000  Ry
     Exchange-correlation= PW
                           (   1   4   0   0   0   0   0)

     celldm(1)=  10.189905  celldm(2)=   0.000000  celldm(3)=   0.000000
     celldm(4)=   0.000000  celldm(5)=   0.000000  celldm(6)=   0.000000

     crystal axes: (cart. coord. in units of alat)
               a(1) = (  -0.500000   0.000000   0.500000 )  
               a(2) = (   0.000000   0.500000   0.500000 )  
               a(3) = (  -0.500000   0.500000   0.000000 )  

     reciprocal axes: (cart. coord. in units 2 pi/alat)
               b(1) = ( -1.000000 -1.000000  1.000000 )  
               b(2) = (  1.000000  1.000000  1.000000 )  
               b(3) = ( -1.000000  1.000000 -1.000000 )  


     PseudoPot. # 1 for Si read from file:
     ./pseudos/Si.nc.UPF
     MD5 check sum: 9e2d726316af3d4752eea8ab0afbb951
     Pseudo is Norm-conserving + core correction, Zval =  4.0
     Generated using ONCVPSP code by D. R. Hamann
     Using radial grid of 1510 points,  6 beta functions with: 
                l(1) =   0
                l(2) =   0
                l(3) =   1
                l(4) =   1
                l(5) =   2
                l(6) =   2

     atomic species   valence    mass     pseudopotential
        Si             4.00    28.08550     Si( 1.00)

     48 Sym. Ops., with inversion, found



   Cartesian axes

     site n.     atom                  positions (alat units)
         1           Si  tau(   1) = (   0.0000000   0.0000000   0.0000000  )
         2           Si  tau(   2) = (  -0.2500000   0.2500000   0.2500000  )

     number of k points=   182

     Number of k-points >= 100: set verbosity='high' to print them.

     Dense  grid:    20875 G-vectors     FFT dimensions: (  40,  40,  40)

     Estimated max dynamical RAM per process >       1.78 MB

     Estimated total dynamical RAM >      56.85 MB

     The potential is recalculated from file :
     /fastscratch/tsievers/QE_TMP_DIR/_ph0/silicon_ph_bench_nd_16_n_procs_32_2.save/charge-density

     Starting wfcs are    8 atomic wfcs

     Band Structure Calculation
     Davidson diagonalization with overlap

     ethr =  1.25E-10,  avg # of iterations = 12.9

     total cpu time spent up to now is       55.1 secs

     End of band structure calculation

     Number of k-points >= 100: set verbosity='high' to print the bands.

     highest occupied level (ev):     6.1106

     Writing config to output data dir /fastscratch/tsievers/QE_TMP_DIR/_ph0/silicon_ph_bench_nd_16_n_procs_32_2.save/

     default                                                                    

     bravais-lattice index     =            2
     lattice parameter (alat)  =      10.1899  a.u.
     unit-cell volume          =     264.5151 (a.u.)^3
     number of atoms/cell      =            2
     number of atomic types    =            1
     kinetic-energy cut-off    =      70.0000  Ry
     charge density cut-off    =     280.0000  Ry
     convergence threshold     =      1.0E-15
     beta                      =       0.7000
     number of iterations used =            4
     Exchange-correlation= PW
                           (   1   4   0   0   0   0   0)


     celldm(1)=   10.18990  celldm(2)=    0.00000  celldm(3)=    0.00000
     celldm(4)=    0.00000  celldm(5)=    0.00000  celldm(6)=    0.00000

     crystal axes: (cart. coord. in units of alat)
               a(1) = ( -0.5000  0.0000  0.5000 )  
               a(2) = (  0.0000  0.5000  0.5000 )  
               a(3) = ( -0.5000  0.5000  0.0000 )  

     reciprocal axes: (cart. coord. in units 2 pi/alat)
               b(1) = ( -1.0000 -1.0000  1.0000 )  
               b(2) = (  1.0000  1.0000  1.0000 )  
               b(3) = ( -1.0000  1.0000 -1.0000 )  


     Atoms inside the unit cell: 

     Cartesian axes

     site n.  atom      mass           positions (alat units)
        1     Si  28.0855   tau(    1) = (    0.00000    0.00000    0.00000  )
        2     Si  28.0855   tau(    2) = (   -0.25000    0.25000    0.25000  )

     Computing dynamical matrix for 
                    q = (   0.5000000  -0.5000000   0.5000000 )
 
     13 Sym.Ops. (with q -> -q+G )


     G cutoff =  736.4420  (    652 G-vectors)     FFT grid: ( 40, 40, 40)
     number of k points=   182

     PseudoPot. # 1 for Si read from file:
     ./pseudos/Si.nc.UPF
     MD5 check sum: 9e2d726316af3d4752eea8ab0afbb951
     Pseudo is Norm-conserving + core correction, Zval =  4.0
     Generated using ONCVPSP code by D. R. Hamann
     Using radial grid of 1510 points,  6 beta functions with: 
                l(1) =   0
                l(2) =   0
                l(3) =   1
                l(4) =   1
                l(5) =   2
                l(6) =   2


     Atomic displacements:
     There are    4 irreducible representations

     Representation     1      1 modes -  To be done

     Representation     2      1 modes -  To be done

     Representation     3      2 modes -  To be done

     Representation     4      2 modes -  To be done



     Alpha used in Ewald sum =   2.8000
     PHONON       :   7m26.91s CPU   8m13.51s WALL



     Representation #   1 mode #   1

     Self-consistent Calculation

      iter #   1 total cpu time :   494.8 secs   av.it.:   5.8
      thresh= 1.000E-02 alpha_mix =  0.700 |ddv_scf|^2 =  1.228E-06

      iter #   2 total cpu time :   497.1 secs   av.it.:  10.4
      thresh= 1.108E-04 alpha_mix =  0.700 |ddv_scf|^2 =  1.133E-06

      iter #   3 total cpu time :   499.1 secs   av.it.:   9.7
      thresh= 1.064E-04 alpha_mix =  0.700 |ddv_scf|^2 =  1.514E-10

      iter #   4 total cpu time :   502.9 secs   av.it.:  10.5
      thresh= 1.231E-06 alpha_mix =  0.700 |ddv_scf|^2 =  2.609E-12

      iter #   5 total cpu time :   505.3 secs   av.it.:  10.3
      thresh= 1.615E-07 alpha_mix =  0.700 |ddv_scf|^2 =  3.725E-14

      iter #   6 total cpu time :   507.6 secs   av.it.:  10.3
      thresh= 1.930E-08 alpha_mix =  0.700 |ddv_scf|^2 =  4.871E-16

     End of self-consistent calculation

     Convergence has been achieved 


     Representation #   2 mode #   2

     Self-consistent Calculation

      iter #   1 total cpu time :   510.9 secs   av.it.:   6.7
      thresh= 1.000E-02 alpha_mix =  0.700 |ddv_scf|^2 =  1.876E-05

      iter #   2 total cpu time :   513.0 secs   av.it.:  10.5
      thresh= 4.331E-04 alpha_mix =  0.700 |ddv_scf|^2 =  6.129E-05

      iter #   3 total cpu time :   515.5 secs   av.it.:   9.5
      thresh= 7.829E-04 alpha_mix =  0.700 |ddv_scf|^2 =  3.620E-09

      iter #   4 total cpu time :   517.5 secs   av.it.:  10.2
      thresh= 6.016E-06 alpha_mix =  0.700 |ddv_scf|^2 =  7.602E-11

      iter #   5 total cpu time :   520.0 secs   av.it.:  10.7
      thresh= 8.719E-07 alpha_mix =  0.700 |ddv_scf|^2 =  3.805E-12

      iter #   6 total cpu time :   522.3 secs   av.it.:  10.4
      thresh= 1.951E-07 alpha_mix =  0.700 |ddv_scf|^2 =  1.076E-13

      iter #   7 total cpu time :   524.2 secs   av.it.:   9.9
      thresh= 3.281E-08 alpha_mix =  0.700 |ddv_scf|^2 =  1.792E-17

     End of self-consistent calculation

     Convergence has been achieved 


     Representation #   3 modes #   3   4

     Self-consistent Calculation

      iter #   1 total cpu time :   527.6 secs   av.it.:   6.1
      thresh= 1.000E-02 alpha_mix =  0.700 |ddv_scf|^2 =  4.335E-08

      iter #   2 total cpu time :   532.9 secs   av.it.:  11.7
      thresh= 2.082E-05 alpha_mix =  0.700 |ddv_scf|^2 =  3.675E-09

      iter #   3 total cpu time :   537.3 secs   av.it.:  11.5
      thresh= 6.062E-06 alpha_mix =  0.700 |ddv_scf|^2 =  2.460E-11

      iter #   4 total cpu time :   542.1 secs   av.it.:  11.5
      thresh= 4.960E-07 alpha_mix =  0.700 |ddv_scf|^2 =  2.751E-14

      iter #   5 total cpu time :   546.7 secs   av.it.:  12.0
      thresh= 1.658E-08 alpha_mix =  0.700 |ddv_scf|^2 =  3.624E-16

     End of self-consistent calculation

     Convergence has been achieved 


     Representation #   4 modes #   5   6

     Self-consistent Calculation

      iter #   1 total cpu time :   549.4 secs   av.it.:   5.5
      thresh= 1.000E-02 alpha_mix =  0.700 |ddv_scf|^2 =  4.920E-09

      iter #   2 total cpu time :   554.6 secs   av.it.:  11.6
      thresh= 7.014E-06 alpha_mix =  0.700 |ddv_scf|^2 =  1.290E-10

      iter #   3 total cpu time :   560.0 secs   av.it.:  11.6
      thresh= 1.136E-06 alpha_mix =  0.700 |ddv_scf|^2 =  7.932E-12

      iter #   4 total cpu time :   564.8 secs   av.it.:  11.6
      thresh= 2.816E-07 alpha_mix =  0.700 |ddv_scf|^2 =  3.392E-14

      iter #   5 total cpu time :   570.9 secs   av.it.:  11.7
      thresh= 1.842E-08 alpha_mix =  0.700 |ddv_scf|^2 =  5.419E-16

     End of self-consistent calculation

     Convergence has been achieved 
 
     Number of q in the star =    4
     List of q in the star:
          1   0.500000000  -0.500000000   0.500000000
          2   0.500000000   0.500000000   0.500000000
          3  -0.500000000   0.500000000   0.500000000
          4   0.500000000   0.500000000  -0.500000000

     Diagonalizing the dynamical matrix

     q = (    0.500000000  -0.500000000   0.500000000 ) 

 **************************************************************************
     freq (    1) =       3.157107 [THz] =     105.309765 [cm-1]
     freq (    2) =       3.157107 [THz] =     105.309765 [cm-1]
     freq (    3) =      11.169063 [THz] =     372.559845 [cm-1]
     freq (    4) =      12.390603 [THz] =     413.306044 [cm-1]
     freq (    5) =      14.704243 [THz] =     490.480755 [cm-1]
     freq (    6) =      14.704243 [THz] =     490.480755 [cm-1]
 **************************************************************************

     Calculation of q =    0.0000000   0.3333333   0.0000000
 
     Parallelization info
     --------------------
     sticks:   dense  smooth     PW     G-vecs:    dense   smooth      PW
     Min          31      31      9                  651      651     113
     Max          32      32     10                  654      654     119
     Sum        1003    1003    313                20875    20875    3719
 
     Using Slab Decomposition
 

     Title: 
     default                                                                    


     bravais-lattice index     =            2
     lattice parameter (alat)  =      10.1899  a.u.
     unit-cell volume          =     264.5151 (a.u.)^3
     number of atoms/cell      =            2
     number of atomic types    =            1
     number of electrons       =         8.00
     number of Kohn-Sham states=            4
     kinetic-energy cutoff     =      70.0000  Ry
     charge density cutoff     =     280.0000  Ry
     Exchange-correlation= PW
                           (   1   4   0   0   0   0   0)

     celldm(1)=  10.189905  celldm(2)=   0.000000  celldm(3)=   0.000000
     celldm(4)=   0.000000  celldm(5)=   0.000000  celldm(6)=   0.000000

     crystal axes: (cart. coord. in units of alat)
               a(1) = (  -0.500000   0.000000   0.500000 )  
               a(2) = (   0.000000   0.500000   0.500000 )  
               a(3) = (  -0.500000   0.500000   0.000000 )  

     reciprocal axes: (cart. coord. in units 2 pi/alat)
               b(1) = ( -1.000000 -1.000000  1.000000 )  
               b(2) = (  1.000000  1.000000  1.000000 )  
               b(3) = ( -1.000000  1.000000 -1.000000 )  


     PseudoPot. # 1 for Si read from file:
     ./pseudos/Si.nc.UPF
     MD5 check sum: 9e2d726316af3d4752eea8ab0afbb951
     Pseudo is Norm-conserving + core correction, Zval =  4.0
     Generated using ONCVPSP code by D. R. Hamann
     Using radial grid of 1510 points,  6 beta functions with: 
                l(1) =   0
                l(2) =   0
                l(3) =   1
                l(4) =   1
                l(5) =   2
                l(6) =   2

     atomic species   valence    mass     pseudopotential
        Si             4.00    28.08550     Si( 1.00)

     48 Sym. Ops., with inversion, found



   Cartesian axes

     site n.     atom                  positions (alat units)
         1           Si  tau(   1) = (   0.0000000   0.0000000   0.0000000  )
         2           Si  tau(   2) = (  -0.2500000   0.2500000   0.2500000  )

     number of k points=   252

     Number of k-points >= 100: set verbosity='high' to print them.

     Dense  grid:    20875 G-vectors     FFT dimensions: (  40,  40,  40)

     Estimated max dynamical RAM per process >       1.75 MB

     Estimated total dynamical RAM >      56.01 MB

     The potential is recalculated from file :
     /fastscratch/tsievers/QE_TMP_DIR/_ph0/silicon_ph_bench_nd_16_n_procs_32_2.save/charge-density

     Starting wfcs are    8 atomic wfcs

     Band Structure Calculation
     Davidson diagonalization with overlap

     ethr =  1.25E-10,  avg # of iterations = 12.8

     total cpu time spent up to now is       68.5 secs

     End of band structure calculation

     Number of k-points >= 100: set verbosity='high' to print the bands.

     highest occupied level (ev):     6.1106

     Writing config to output data dir /fastscratch/tsievers/QE_TMP_DIR/_ph0/silicon_ph_bench_nd_16_n_procs_32_2.save/

     default                                                                    

     bravais-lattice index     =            2
     lattice parameter (alat)  =      10.1899  a.u.
     unit-cell volume          =     264.5151 (a.u.)^3
     number of atoms/cell      =            2
     number of atomic types    =            1
     kinetic-energy cut-off    =      70.0000  Ry
     charge density cut-off    =     280.0000  Ry
     convergence threshold     =      1.0E-15
     beta                      =       0.7000
     number of iterations used =            4
     Exchange-correlation= PW
                           (   1   4   0   0   0   0   0)


     celldm(1)=   10.18990  celldm(2)=    0.00000  celldm(3)=    0.00000
     celldm(4)=    0.00000  celldm(5)=    0.00000  celldm(6)=    0.00000

     crystal axes: (cart. coord. in units of alat)
               a(1) = ( -0.5000  0.0000  0.5000 )  
               a(2) = (  0.0000  0.5000  0.5000 )  
               a(3) = ( -0.5000  0.5000  0.0000 )  

     reciprocal axes: (cart. coord. in units 2 pi/alat)
               b(1) = ( -1.0000 -1.0000  1.0000 )  
               b(2) = (  1.0000  1.0000  1.0000 )  
               b(3) = ( -1.0000  1.0000 -1.0000 )  


     Atoms inside the unit cell: 

     Cartesian axes

     site n.  atom      mass           positions (alat units)
        1     Si  28.0855   tau(    1) = (    0.00000    0.00000    0.00000  )
        2     Si  28.0855   tau(    2) = (   -0.25000    0.25000    0.25000  )

     Computing dynamical matrix for 
                    q = (   0.0000000   0.3333333   0.0000000 )
 
      8 Sym.Ops. (no q -> -q+G )


     G cutoff =  736.4420  (    652 G-vectors)     FFT grid: ( 40, 40, 40)
     number of k points=   252

     PseudoPot. # 1 for Si read from file:
     ./pseudos/Si.nc.UPF
     MD5 check sum: 9e2d726316af3d4752eea8ab0afbb951
     Pseudo is Norm-conserving + core correction, Zval =  4.0
     Generated using ONCVPSP code by D. R. Hamann
     Using radial grid of 1510 points,  6 beta functions with: 
                l(1) =   0
                l(2) =   0
                l(3) =   1
                l(4) =   1
                l(5) =   2
                l(6) =   2

     Mode symmetry, C_4v (4mm)  point group:


     Atomic displacements:
     There are    4 irreducible representations

     Representation     1      1 modes -  To be done

     Representation     2      1 modes -  To be done

     Representation     3      2 modes -  To be done

     Representation     4      2 modes -  To be done



     Alpha used in Ewald sum =   2.8000
     PHONON       :   8m47.78s CPU   9m48.57s WALL



     Representation #   1 mode #   1

     Self-consistent Calculation

      iter #   1 total cpu time :   592.3 secs   av.it.:   6.8
      thresh= 1.000E-02 alpha_mix =  0.700 |ddv_scf|^2 =  8.142E-04

      iter #   2 total cpu time :   595.7 secs   av.it.:   9.6
      thresh= 2.853E-03 alpha_mix =  0.700 |ddv_scf|^2 =  2.483E-02

      iter #   3 total cpu time :   598.5 secs   av.it.:   8.1
      thresh= 1.000E-02 alpha_mix =  0.700 |ddv_scf|^2 =  2.292E-08

      iter #   4 total cpu time :   601.1 secs   av.it.:   9.4
      thresh= 1.514E-05 alpha_mix =  0.700 |ddv_scf|^2 =  1.087E-09

      iter #   5 total cpu time :   603.8 secs   av.it.:   9.1
      thresh= 3.296E-06 alpha_mix =  0.700 |ddv_scf|^2 =  3.541E-10

      iter #   6 total cpu time :   606.2 secs   av.it.:   8.7
      thresh= 1.882E-06 alpha_mix =  0.700 |ddv_scf|^2 =  4.746E-13

      iter #   7 total cpu time :   608.7 secs   av.it.:   8.9
      thresh= 6.889E-08 alpha_mix =  0.700 |ddv_scf|^2 =  1.100E-14

      iter #   8 total cpu time :   611.1 secs   av.it.:   8.8
      thresh= 1.049E-08 alpha_mix =  0.700 |ddv_scf|^2 =  1.323E-16

     End of self-consistent calculation

     Convergence has been achieved 


     Representation #   2 mode #   2

     Self-consistent Calculation

      iter #   1 total cpu time :   614.0 secs   av.it.:   5.9
      thresh= 1.000E-02 alpha_mix =  0.700 |ddv_scf|^2 =  1.243E-07

      iter #   2 total cpu time :   617.0 secs   av.it.:  10.8
      thresh= 3.525E-05 alpha_mix =  0.700 |ddv_scf|^2 =  2.010E-08

      iter #   3 total cpu time :   620.2 secs   av.it.:  10.6
      thresh= 1.418E-05 alpha_mix =  0.700 |ddv_scf|^2 =  2.542E-10

      iter #   4 total cpu time :   623.7 secs   av.it.:  10.7
      thresh= 1.594E-06 alpha_mix =  0.700 |ddv_scf|^2 =  1.056E-11

      iter #   5 total cpu time :   626.6 secs   av.it.:  10.7
      thresh= 3.249E-07 alpha_mix =  0.700 |ddv_scf|^2 =  2.405E-14

      iter #   6 total cpu time :   629.6 secs   av.it.:  11.0
      thresh= 1.551E-08 alpha_mix =  0.700 |ddv_scf|^2 =  4.806E-16

     End of self-consistent calculation

     Convergence has been achieved 


     Representation #   3 modes #   3   4

     Self-consistent Calculation

      iter #   1 total cpu time :   633.9 secs   av.it.:   6.0
      thresh= 1.000E-02 alpha_mix =  0.700 |ddv_scf|^2 =  2.249E-08

      iter #   2 total cpu time :   640.7 secs   av.it.:  11.8
      thresh= 1.500E-05 alpha_mix =  0.700 |ddv_scf|^2 =  2.050E-09

      iter #   3 total cpu time :   648.3 secs   av.it.:  11.6
      thresh= 4.528E-06 alpha_mix =  0.700 |ddv_scf|^2 =  2.390E-11

      iter #   4 total cpu time :   656.3 secs   av.it.:  11.7
      thresh= 4.889E-07 alpha_mix =  0.700 |ddv_scf|^2 =  2.688E-13

      iter #   5 total cpu time :   663.4 secs   av.it.:  11.7
      thresh= 5.185E-08 alpha_mix =  0.700 |ddv_scf|^2 =  4.461E-15

      iter #   6 total cpu time :   669.6 secs   av.it.:  12.1
      thresh= 6.679E-09 alpha_mix =  0.700 |ddv_scf|^2 =  1.818E-17

     End of self-consistent calculation

     Convergence has been achieved 


     Representation #   4 modes #   5   6

     Self-consistent Calculation

      iter #   1 total cpu time :   673.8 secs   av.it.:   6.0
      thresh= 1.000E-02 alpha_mix =  0.700 |ddv_scf|^2 =  2.966E-08

      iter #   2 total cpu time :   681.8 secs   av.it.:  11.7
      thresh= 1.722E-05 alpha_mix =  0.700 |ddv_scf|^2 =  2.796E-09

      iter #   3 total cpu time :   687.9 secs   av.it.:  11.5
      thresh= 5.288E-06 alpha_mix =  0.700 |ddv_scf|^2 =  2.530E-11

      iter #   4 total cpu time :   694.0 secs   av.it.:  11.7
      thresh= 5.030E-07 alpha_mix =  0.700 |ddv_scf|^2 =  1.720E-13

      iter #   5 total cpu time :   700.1 secs   av.it.:  11.6
      thresh= 4.147E-08 alpha_mix =  0.700 |ddv_scf|^2 =  4.083E-15

      iter #   6 total cpu time :   706.3 secs   av.it.:  12.1
      thresh= 6.390E-09 alpha_mix =  0.700 |ddv_scf|^2 =  1.730E-17

     End of self-consistent calculation

     Convergence has been achieved 
 
     Number of q in the star =    6
     List of q in the star:
          1   0.000000000   0.333333333   0.000000000
          2   0.333333333   0.000000000   0.000000000
          3   0.000000000   0.000000000   0.333333333
          4   0.000000000  -0.333333333   0.000000000
          5  -0.333333333   0.000000000   0.000000000
          6   0.000000000   0.000000000  -0.333333333

     Diagonalizing the dynamical matrix

     q = (    0.000000000   0.333333333   0.000000000 ) 

 **************************************************************************
     freq (    1) =       2.948362 [THz] =      98.346772 [cm-1]
     freq (    2) =       2.948362 [THz] =      98.346772 [cm-1]
     freq (    3) =       4.953283 [THz] =     165.223737 [cm-1]
     freq (    4) =      14.670258 [THz] =     489.347131 [cm-1]
     freq (    5) =      14.670258 [THz] =     489.347131 [cm-1]
     freq (    6) =      15.142871 [THz] =     505.111791 [cm-1]
 **************************************************************************

     Mode symmetry, C_4v (4mm)  point group:

     freq (   1-   2) =         98.3  [cm-1]   --> E    G_5 D_5       
     freq (   3-   3) =        165.2  [cm-1]   --> A_1  G_1 D_1       
     freq (   4-   5) =        489.3  [cm-1]   --> E    G_5 D_5       
     freq (   6-   6) =        505.1  [cm-1]   --> B_2  G_4 D_2'      

     Calculation of q =   -0.1666667   0.5000000  -0.1666667
 
     Parallelization info
     --------------------
     sticks:   dense  smooth     PW     G-vecs:    dense   smooth      PW
     Min          31      31      9                  651      651     116
     Max          32      32     10                  654      654     122
     Sum        1003    1003    313                20875    20875    3839
 
     Using Slab Decomposition
 

     Title: 
     default                                                                    


     bravais-lattice index     =            2
     lattice parameter (alat)  =      10.1899  a.u.
     unit-cell volume          =     264.5151 (a.u.)^3
     number of atoms/cell      =            2
     number of atomic types    =            1
     number of electrons       =         8.00
     number of Kohn-Sham states=            4
     kinetic-energy cutoff     =      70.0000  Ry
     charge density cutoff     =     280.0000  Ry
     Exchange-correlation= PW
                           (   1   4   0   0   0   0   0)

     celldm(1)=  10.189905  celldm(2)=   0.000000  celldm(3)=   0.000000
     celldm(4)=   0.000000  celldm(5)=   0.000000  celldm(6)=   0.000000

     crystal axes: (cart. coord. in units of alat)
               a(1) = (  -0.500000   0.000000   0.500000 )  
               a(2) = (   0.000000   0.500000   0.500000 )  
               a(3) = (  -0.500000   0.500000   0.000000 )  

     reciprocal axes: (cart. coord. in units 2 pi/alat)
               b(1) = ( -1.000000 -1.000000  1.000000 )  
               b(2) = (  1.000000  1.000000  1.000000 )  
               b(3) = ( -1.000000  1.000000 -1.000000 )  


     PseudoPot. # 1 for Si read from file:
     ./pseudos/Si.nc.UPF
     MD5 check sum: 9e2d726316af3d4752eea8ab0afbb951
     Pseudo is Norm-conserving + core correction, Zval =  4.0
     Generated using ONCVPSP code by D. R. Hamann
     Using radial grid of 1510 points,  6 beta functions with: 
                l(1) =   0
                l(2) =   0
                l(3) =   1
                l(4) =   1
                l(5) =   2
                l(6) =   2

     atomic species   valence    mass     pseudopotential
        Si             4.00    28.08550     Si( 1.00)

     48 Sym. Ops., with inversion, found



   Cartesian axes

     site n.     atom                  positions (alat units)
         1           Si  tau(   1) = (   0.0000000   0.0000000   0.0000000  )
         2           Si  tau(   2) = (  -0.2500000   0.2500000   0.2500000  )

     number of k points=   936

     Number of k-points >= 100: set verbosity='high' to print them.

     Dense  grid:    20875 G-vectors     FFT dimensions: (  40,  40,  40)

     Estimated max dynamical RAM per process >       1.76 MB

     Estimated total dynamical RAM >      56.36 MB

     The potential is recalculated from file :
     /fastscratch/tsievers/QE_TMP_DIR/_ph0/silicon_ph_bench_nd_16_n_procs_32_2.save/charge-density

     Starting wfcs are    8 atomic wfcs

     Band Structure Calculation
     Davidson diagonalization with overlap

     ethr =  1.25E-10,  avg # of iterations = 12.8

     total cpu time spent up to now is      127.4 secs

     End of band structure calculation

     Number of k-points >= 100: set verbosity='high' to print the bands.

     highest occupied level (ev):     6.1106

     Writing config to output data dir /fastscratch/tsievers/QE_TMP_DIR/_ph0/silicon_ph_bench_nd_16_n_procs_32_2.save/

     default                                                                    

     bravais-lattice index     =            2
     lattice parameter (alat)  =      10.1899  a.u.
     unit-cell volume          =     264.5151 (a.u.)^3
     number of atoms/cell      =            2
     number of atomic types    =            1
     kinetic-energy cut-off    =      70.0000  Ry
     charge density cut-off    =     280.0000  Ry
     convergence threshold     =      1.0E-15
     beta                      =       0.7000
     number of iterations used =            4
     Exchange-correlation= PW
                           (   1   4   0   0   0   0   0)


     celldm(1)=   10.18990  celldm(2)=    0.00000  celldm(3)=    0.00000
     celldm(4)=    0.00000  celldm(5)=    0.00000  celldm(6)=    0.00000

     crystal axes: (cart. coord. in units of alat)
               a(1) = ( -0.5000  0.0000  0.5000 )  
               a(2) = (  0.0000  0.5000  0.5000 )  
               a(3) = ( -0.5000  0.5000  0.0000 )  

     reciprocal axes: (cart. coord. in units 2 pi/alat)
               b(1) = ( -1.0000 -1.0000  1.0000 )  
               b(2) = (  1.0000  1.0000  1.0000 )  
               b(3) = ( -1.0000  1.0000 -1.0000 )  


     Atoms inside the unit cell: 

     Cartesian axes

     site n.  atom      mass           positions (alat units)
[...]
      thresh= 1.000E-02 alpha_mix =  0.700 |ddv_scf|^2 =  2.102E-06

      iter #   2 total cpu time :  4901.1 secs   av.it.:  11.2
      thresh= 1.450E-04 alpha_mix =  0.700 |ddv_scf|^2 =  2.666E-06

      iter #   3 total cpu time :  4912.0 secs   av.it.:  10.4
      thresh= 1.633E-04 alpha_mix =  0.700 |ddv_scf|^2 =  3.051E-08

      iter #   4 total cpu time :  4922.4 secs   av.it.:  10.6
      thresh= 1.747E-05 alpha_mix =  0.700 |ddv_scf|^2 =  1.534E-10

      iter #   5 total cpu time :  4932.6 secs   av.it.:  10.9
      thresh= 1.239E-06 alpha_mix =  0.700 |ddv_scf|^2 =  3.891E-12

      iter #   6 total cpu time :  4942.3 secs   av.it.:  11.1
      thresh= 1.972E-07 alpha_mix =  0.700 |ddv_scf|^2 =  2.286E-14

      iter #   7 total cpu time :  4953.5 secs   av.it.:  10.9
      thresh= 1.512E-08 alpha_mix =  0.700 |ddv_scf|^2 =  2.510E-15

      iter #   8 total cpu time :  4963.2 secs   av.it.:  11.0
      thresh= 5.010E-09 alpha_mix =  0.700 |ddv_scf|^2 =  9.361E-17

     End of self-consistent calculation

     Convergence has been achieved 


     Representation #   6 mode #   6

     Self-consistent Calculation

      iter #   1 total cpu time :  4970.3 secs   av.it.:   6.3
      thresh= 1.000E-02 alpha_mix =  0.700 |ddv_scf|^2 =  9.880E-07

      iter #   2 total cpu time :  4980.2 secs   av.it.:  11.2
      thresh= 9.940E-05 alpha_mix =  0.700 |ddv_scf|^2 =  1.083E-06

      iter #   3 total cpu time :  4989.6 secs   av.it.:  10.3
      thresh= 1.041E-04 alpha_mix =  0.700 |ddv_scf|^2 =  2.653E-08

      iter #   4 total cpu time :  4999.7 secs   av.it.:  10.5
      thresh= 1.629E-05 alpha_mix =  0.700 |ddv_scf|^2 =  8.654E-11

      iter #   5 total cpu time :  5010.4 secs   av.it.:  10.9
      thresh= 9.303E-07 alpha_mix =  0.700 |ddv_scf|^2 =  1.629E-12

      iter #   6 total cpu time :  5019.9 secs   av.it.:  11.0
      thresh= 1.276E-07 alpha_mix =  0.700 |ddv_scf|^2 =  7.634E-15

      iter #   7 total cpu time :  5029.8 secs   av.it.:  11.0
      thresh= 8.737E-09 alpha_mix =  0.700 |ddv_scf|^2 =  4.363E-16

     End of self-consistent calculation

     Convergence has been achieved 
 
     Number of q in the star =   24
     List of q in the star:
          1   0.500000000  -0.166666667   0.833333333
          2   0.833333333   0.166666667   0.500000000
          3   0.500000000   0.166666667   0.833333333
          4  -0.833333333  -0.166666667   0.500000000
          5  -0.833333333  -0.166666667  -0.500000000
          6  -0.500000000  -0.166666667  -0.833333333
          7   0.833333333  -0.166666667   0.500000000
          8  -0.500000000  -0.166666667   0.833333333
          9  -0.833333333   0.166666667   0.500000000
         10   0.833333333   0.166666667  -0.500000000
         11   0.833333333  -0.166666667  -0.500000000
         12   0.500000000   0.166666667  -0.833333333
         13  -0.500000000   0.166666667   0.833333333
         14  -0.500000000   0.166666667  -0.833333333
         15  -0.833333333   0.166666667  -0.500000000
         16   0.833333333  -0.500000000   0.166666667
         17   0.833333333   0.500000000  -0.166666667
         18  -0.833333333  -0.500000000  -0.166666667
         19  -0.833333333   0.500000000   0.166666667
         20   0.166666667  -0.500000000   0.833333333
         21  -0.166666667   0.500000000   0.833333333
         22   0.166666667   0.500000000  -0.833333333
         23  -0.166666667  -0.500000000  -0.833333333
         24  -0.500000000   0.833333333   0.166666667

     Diagonalizing the dynamical matrix

     q = (    0.500000000  -0.166666667   0.833333333 ) 

 **************************************************************************
     freq (    1) =       5.051947 [THz] =     168.514816 [cm-1]
     freq (    2) =       6.066371 [THz] =     202.352357 [cm-1]
     freq (    3) =       9.812796 [THz] =     327.319650 [cm-1]
     freq (    4) =      11.453128 [THz] =     382.035232 [cm-1]
     freq (    5) =      14.042012 [THz] =     468.391113 [cm-1]
     freq (    6) =      14.270819 [THz] =     476.023284 [cm-1]
 **************************************************************************

     Calculation of q =   -0.3333333  -1.0000000   0.0000000
 
     Parallelization info
     --------------------
     sticks:   dense  smooth     PW     G-vecs:    dense   smooth      PW
     Min          31      31     10                  651      651     132
     Max          32      32     11                  654      654     135
     Sum        1003    1003    349                20875    20875    4279
 
     Using Slab Decomposition
 

     Title: 
     default                                                                    


     bravais-lattice index     =            2
     lattice parameter (alat)  =      10.1899  a.u.
     unit-cell volume          =     264.5151 (a.u.)^3
     number of atoms/cell      =            2
     number of atomic types    =            1
     number of electrons       =         8.00
     number of Kohn-Sham states=            4
     kinetic-energy cutoff     =      70.0000  Ry
     charge density cutoff     =     280.0000  Ry
     Exchange-correlation= PW
                           (   1   4   0   0   0   0   0)

     celldm(1)=  10.189905  celldm(2)=   0.000000  celldm(3)=   0.000000
     celldm(4)=   0.000000  celldm(5)=   0.000000  celldm(6)=   0.000000

     crystal axes: (cart. coord. in units of alat)
               a(1) = (  -0.500000   0.000000   0.500000 )  
               a(2) = (   0.000000   0.500000   0.500000 )  
               a(3) = (  -0.500000   0.500000   0.000000 )  

     reciprocal axes: (cart. coord. in units 2 pi/alat)
               b(1) = ( -1.000000 -1.000000  1.000000 )  
               b(2) = (  1.000000  1.000000  1.000000 )  
               b(3) = ( -1.000000  1.000000 -1.000000 )  


     PseudoPot. # 1 for Si read from file:
     ./pseudos/Si.nc.UPF
     MD5 check sum: 9e2d726316af3d4752eea8ab0afbb951
     Pseudo is Norm-conserving + core correction, Zval =  4.0
     Generated using ONCVPSP code by D. R. Hamann
     Using radial grid of 1510 points,  6 beta functions with: 
                l(1) =   0
                l(2) =   0
                l(3) =   1
                l(4) =   1
                l(5) =   2
                l(6) =   2

     atomic species   valence    mass     pseudopotential
        Si             4.00    28.08550     Si( 1.00)

     48 Sym. Ops., with inversion, found



   Cartesian axes

     site n.     atom                  positions (alat units)
         1           Si  tau(   1) = (   0.0000000   0.0000000   0.0000000  )
         2           Si  tau(   2) = (  -0.2500000   0.2500000   0.2500000  )

     number of k points=   432

     Number of k-points >= 100: set verbosity='high' to print them.

     Dense  grid:    20875 G-vectors     FFT dimensions: (  40,  40,  40)

     Estimated max dynamical RAM per process >       1.79 MB

     Estimated total dynamical RAM >      57.16 MB

     The potential is recalculated from file :
     /fastscratch/tsievers/QE_TMP_DIR/_ph0/silicon_ph_bench_nd_16_n_procs_32_2.save/charge-density

     Starting wfcs are    8 atomic wfcs

     Band Structure Calculation
     Davidson diagonalization with overlap

     ethr =  1.25E-10,  avg # of iterations = 12.8

     total cpu time spent up to now is      489.4 secs

     End of band structure calculation

     Number of k-points >= 100: set verbosity='high' to print the bands.

     highest occupied level (ev):     6.1106

     Writing config to output data dir /fastscratch/tsievers/QE_TMP_DIR/_ph0/silicon_ph_bench_nd_16_n_procs_32_2.save/

     default                                                                    

     bravais-lattice index     =            2
     lattice parameter (alat)  =      10.1899  a.u.
     unit-cell volume          =     264.5151 (a.u.)^3
     number of atoms/cell      =            2
     number of atomic types    =            1
     kinetic-energy cut-off    =      70.0000  Ry
     charge density cut-off    =     280.0000  Ry
     convergence threshold     =      1.0E-15
     beta                      =       0.7000
     number of iterations used =            4
     Exchange-correlation= PW
                           (   1   4   0   0   0   0   0)


     celldm(1)=   10.18990  celldm(2)=    0.00000  celldm(3)=    0.00000
     celldm(4)=    0.00000  celldm(5)=    0.00000  celldm(6)=    0.00000

     crystal axes: (cart. coord. in units of alat)
               a(1) = ( -0.5000  0.0000  0.5000 )  
               a(2) = (  0.0000  0.5000  0.5000 )  
               a(3) = ( -0.5000  0.5000  0.0000 )  

     reciprocal axes: (cart. coord. in units 2 pi/alat)
               b(1) = ( -1.0000 -1.0000  1.0000 )  
               b(2) = (  1.0000  1.0000  1.0000 )  
               b(3) = ( -1.0000  1.0000 -1.0000 )  


     Atoms inside the unit cell: 

     Cartesian axes

     site n.  atom      mass           positions (alat units)
        1     Si  28.0855   tau(    1) = (    0.00000    0.00000    0.00000  )
        2     Si  28.0855   tau(    2) = (   -0.25000    0.25000    0.25000  )

     Computing dynamical matrix for 
                    q = (  -0.3333333  -1.0000000   0.0000000 )
 
      4 Sym.Ops. (no q -> -q+G )


     G cutoff =  736.4420  (    652 G-vectors)     FFT grid: ( 40, 40, 40)
     number of k points=   432

     PseudoPot. # 1 for Si read from file:
     ./pseudos/Si.nc.UPF
     MD5 check sum: 9e2d726316af3d4752eea8ab0afbb951
     Pseudo is Norm-conserving + core correction, Zval =  4.0
     Generated using ONCVPSP code by D. R. Hamann
     Using radial grid of 1510 points,  6 beta functions with: 
                l(1) =   0
                l(2) =   0
                l(3) =   1
                l(4) =   1
                l(5) =   2
                l(6) =   2


     Atomic displacements:
     There are    3 irreducible representations

     Representation     1      2 modes -  To be done

     Representation     2      2 modes -  To be done

     Representation     3      2 modes -  To be done



     Alpha used in Ewald sum =   2.8000
     PHONON       :      1h16m CPU      1h24m WALL



     Representation #   1 modes #   1   2

     Self-consistent Calculation

      iter #   1 total cpu time :  5068.1 secs   av.it.:   6.2
      thresh= 1.000E-02 alpha_mix =  0.700 |ddv_scf|^2 =  1.970E-07

      iter #   2 total cpu time :  5080.3 secs   av.it.:  11.9
      thresh= 4.438E-05 alpha_mix =  0.700 |ddv_scf|^2 =  2.196E-07

      iter #   3 total cpu time :  5092.4 secs   av.it.:  11.2
      thresh= 4.686E-05 alpha_mix =  0.700 |ddv_scf|^2 =  1.789E-09

      iter #   4 total cpu time :  5103.0 secs   av.it.:  11.4
      thresh= 4.229E-06 alpha_mix =  0.700 |ddv_scf|^2 =  3.629E-11

      iter #   5 total cpu time :  5113.5 secs   av.it.:  11.5
      thresh= 6.024E-07 alpha_mix =  0.700 |ddv_scf|^2 =  4.192E-13

      iter #   6 total cpu time :  5125.2 secs   av.it.:  11.8
      thresh= 6.474E-08 alpha_mix =  0.700 |ddv_scf|^2 =  8.394E-15

      iter #   7 total cpu time :  5137.0 secs   av.it.:  11.7
      thresh= 9.162E-09 alpha_mix =  0.700 |ddv_scf|^2 =  4.359E-16

     End of self-consistent calculation

     Convergence has been achieved 


     Representation #   2 modes #   3   4

     Self-consistent Calculation

      iter #   1 total cpu time :  5144.0 secs   av.it.:   6.4
      thresh= 1.000E-02 alpha_mix =  0.700 |ddv_scf|^2 =  3.571E-07

      iter #   2 total cpu time :  5156.4 secs   av.it.:  11.9
      thresh= 5.976E-05 alpha_mix =  0.700 |ddv_scf|^2 =  4.004E-07

      iter #   3 total cpu time :  5166.0 secs   av.it.:  11.2
      thresh= 6.328E-05 alpha_mix =  0.700 |ddv_scf|^2 =  3.461E-09

      iter #   4 total cpu time :  5178.0 secs   av.it.:  11.3
      thresh= 5.883E-06 alpha_mix =  0.700 |ddv_scf|^2 =  3.610E-11

      iter #   5 total cpu time :  5188.8 secs   av.it.:  11.6
      thresh= 6.008E-07 alpha_mix =  0.700 |ddv_scf|^2 =  8.232E-13

      iter #   6 total cpu time :  5204.7 secs   av.it.:  11.8
      thresh= 9.073E-08 alpha_mix =  0.700 |ddv_scf|^2 =  6.530E-15

      iter #   7 total cpu time :  5215.3 secs   av.it.:  11.7
      thresh= 8.081E-09 alpha_mix =  0.700 |ddv_scf|^2 =  4.109E-16

     End of self-consistent calculation

     Convergence has been achieved 


     Representation #   3 modes #   5   6

     Self-consistent Calculation

      iter #   1 total cpu time :  5223.4 secs   av.it.:   6.5
      thresh= 1.000E-02 alpha_mix =  0.700 |ddv_scf|^2 =  4.730E-07

      iter #   2 total cpu time :  5239.9 secs   av.it.:  11.8
      thresh= 6.877E-05 alpha_mix =  0.700 |ddv_scf|^2 =  5.192E-07

      iter #   3 total cpu time :  5250.7 secs   av.it.:  11.1
      thresh= 7.205E-05 alpha_mix =  0.700 |ddv_scf|^2 =  4.189E-09

      iter #   4 total cpu time :  5262.3 secs   av.it.:  11.2
      thresh= 6.472E-06 alpha_mix =  0.700 |ddv_scf|^2 =  2.844E-11

      iter #   5 total cpu time :  5272.5 secs   av.it.:  11.6
      thresh= 5.333E-07 alpha_mix =  0.700 |ddv_scf|^2 =  2.700E-13

      iter #   6 total cpu time :  5282.6 secs   av.it.:  11.6
      thresh= 5.196E-08 alpha_mix =  0.700 |ddv_scf|^2 =  4.736E-15

      iter #   7 total cpu time :  5292.9 secs   av.it.:  11.5
      thresh= 6.882E-09 alpha_mix =  0.700 |ddv_scf|^2 =  2.845E-16

     End of self-consistent calculation

     Convergence has been achieved 
 
     Number of q in the star =   12
     List of q in the star:
          1  -0.333333333  -1.000000000   0.000000000
          2   0.000000000  -1.000000000  -0.333333333
          3   0.000000000  -1.000000000   0.333333333
          4   0.333333333  -1.000000000   0.000000000
          5  -1.000000000   0.000000000  -0.333333333
          6   1.000000000   0.000000000   0.333333333
          7   0.000000000   0.333333333   1.000000000
          8   0.000000000  -0.333333333  -1.000000000
          9  -1.000000000  -0.333333333   0.000000000
         10   1.000000000   0.333333333   0.000000000
         11  -0.333333333   0.000000000   1.000000000
         12   0.333333333   0.000000000   1.000000000

     Diagonalizing the dynamical matrix

     q = (   -0.333333333  -1.000000000   0.000000000 ) 

 **************************************************************************
     freq (    1) =       5.494005 [THz] =     183.260268 [cm-1]
     freq (    2) =       5.494005 [THz] =     183.260268 [cm-1]
     freq (    3) =      10.966331 [THz] =     365.797438 [cm-1]
     freq (    4) =      10.966331 [THz] =     365.797438 [cm-1]
     freq (    5) =      14.002417 [THz] =     467.070367 [cm-1]
     freq (    6) =      14.002417 [THz] =     467.070367 [cm-1]
 **************************************************************************
 
     init_run     :      0.23s CPU      0.56s WALL (      15 calls)
     electrons    :    448.22s CPU    464.73s WALL (      15 calls)

     Called by init_run:
     wfcinit      :      0.00s CPU      0.12s WALL (      15 calls)
     potinit      :      0.02s CPU      0.20s WALL (      15 calls)
     hinit0       :      0.10s CPU      0.11s WALL (      15 calls)

     Called by electrons:
     c_bands      :    448.22s CPU    464.73s WALL (      15 calls)
     v_of_rho     :      0.01s CPU      0.01s WALL (      16 calls)

     Called by c_bands:
     init_us_2    :      8.79s CPU      9.06s WALL (  248111 calls)
     init_us_2:cp :      8.18s CPU      8.50s WALL (  248111 calls)
     cegterg      :    387.66s CPU    392.73s WALL (    8380 calls)

     Called by *egterg:
     cdiaghg      :    182.77s CPU    185.18s WALL (  115750 calls)
     h_psi        :   3349.60s CPU   3427.58s WALL ( 2460195 calls)
     g_psi        :      0.37s CPU      0.38s WALL (  107370 calls)

     Called by h_psi:
     h_psi:calbec :    119.65s CPU    122.39s WALL ( 2460195 calls)
     vloc_psi     :   3166.96s CPU   3240.79s WALL ( 2460195 calls)
     add_vuspsi   :     42.38s CPU     43.90s WALL ( 2460195 calls)

     General routines
     calbec       :    192.08s CPU    198.44s WALL ( 4939756 calls)
     fft          :      1.07s CPU      1.10s WALL (    3921 calls)
     ffts         :      8.67s CPU      8.81s WALL (   25932 calls)
     fftw         :   3830.79s CPU   3918.98s WALL (20949128 calls)
     davcio       :     10.06s CPU     96.68s WALL ( 1045522 calls)
 
     Parallel routines
 
     PHONON       :      1h19m CPU      1h28m WALL

     INITIALIZATION: 
     phq_setup    :      0.03s CPU      0.53s WALL (      16 calls)
     phq_init     :      3.80s CPU      5.70s WALL (      16 calls)
 
     phq_init     :      3.80s CPU      5.70s WALL (      16 calls)
     set_drhoc    :      0.28s CPU      0.29s WALL (      48 calls)
     init_vloc    :      0.03s CPU      0.03s WALL (      16 calls)
     init_us_1    :      0.03s CPU      0.03s WALL (      16 calls)
     init_us_2    :      8.79s CPU      9.06s WALL (  248111 calls)
 
     DYNAMICAL MATRIX:
     dynmat0      :      2.68s CPU      4.52s WALL (      16 calls)
     phqscf       :   4302.41s CPU   4748.78s WALL (      16 calls)
     dynmatrix    :      0.45s CPU      0.70s WALL (      16 calls)
 
     phqscf       :   4302.41s CPU   4748.78s WALL (      16 calls)
     solve_linter :   4296.65s CPU   4729.45s WALL (      76 calls)
     drhodv       :      5.68s CPU      6.05s WALL (      76 calls)
 
     dynmat0      :      2.68s CPU      4.52s WALL (      16 calls)
     dynmat_us    :      2.48s CPU      2.59s WALL (      16 calls)
     d2ionq       :      0.00s CPU      0.01s WALL (      16 calls)
     dynmatcc     :      0.20s CPU      0.20s WALL (      16 calls)
 
     dynmat_us    :      2.48s CPU      2.59s WALL (      16 calls)
 
     phqscf       :   4302.41s CPU   4748.78s WALL (      16 calls)
     solve_linter :   4296.65s CPU   4729.45s WALL (      76 calls)
 
     solve_linter :   4296.65s CPU   4729.45s WALL (      76 calls)
     dvqpsi_us    :     50.46s CPU     51.47s WALL (   25476 calls)
     sth_kernel   :   4171.32s CPU   4342.80s WALL (     581 calls)
     apply_dpot_b :    267.43s CPU    274.93s WALL (  174657 calls)
     ortho        :      9.01s CPU      9.27s WALL (  200133 calls)
     cgsolve      :   3419.39s CPU   3500.87s WALL (  200133 calls)
     incdrhoscf   :    452.74s CPU    460.96s WALL (  200049 calls)
     dv_of_drho   :      0.52s CPU      0.53s WALL (     708 calls)
     mix_pot      :      6.35s CPU    164.32s WALL (     581 calls)
     psymdvscf    :      8.37s CPU      8.45s WALL (     576 calls)
 
     dvqpsi_us    :     50.46s CPU     51.47s WALL (   25476 calls)
     dvqpsi_us_on :      3.06s CPU      3.13s WALL (   25476 calls)
 
     cgsolve      :   3419.39s CPU   3500.87s WALL (  200133 calls)
     ch_psi       :   3336.98s CPU   3415.39s WALL ( 2336065 calls)
 
     ch_psi       :   3336.98s CPU   3415.39s WALL ( 2336065 calls)
     h_psi        :   3349.60s CPU   3427.58s WALL ( 2460195 calls)
     last         :    144.00s CPU    147.56s WALL ( 2336065 calls)
 
     h_psi        :   3349.60s CPU   3427.58s WALL ( 2460195 calls)
     add_vuspsi   :     42.38s CPU     43.90s WALL ( 2460195 calls)
 
     incdrhoscf   :    452.74s CPU    460.96s WALL (  200049 calls)
 
 
      General routines
     calbec       :    192.08s CPU    198.44s WALL ( 4939756 calls)
     fft          :      1.07s CPU      1.10s WALL (    3921 calls)
     ffts         :      8.67s CPU      8.81s WALL (   25932 calls)
     fftw         :   3830.79s CPU   3918.98s WALL (20949128 calls)
     davcio       :     10.06s CPU     96.68s WALL ( 1045522 calls)
     write_rec    :      2.26s CPU    116.20s WALL (     657 calls)
 
 
     PHONON       :      1h19m CPU      1h28m WALL

 
   This run was terminated on:  17:44:13  27Jun2022            

=------------------------------------------------------------------------------=
   JOB DONE.
=------------------------------------------------------------------------------=
real 5297.51
user 97134.53
sys 2040.29
