
     Program PHONON v.7.0 starts on  4Jun2022 at  0:27:36 

     This program is part of the open-source Quantum ESPRESSO suite
     for quantum simulation of materials; please cite
         "P. Giannozzi et al., J. Phys.:Condens. Matter 21 395502 (2009);
         "P. Giannozzi et al., J. Phys.:Condens. Matter 29 465901 (2017);
         "P. Giannozzi et al., J. Chem. Phys. 152 154105 (2020);
          URL http://www.quantum-espresso.org", 
     in publications or presentations arising from this work. More details at
     http://www.quantum-espresso.org/quote

     Parallel version (MPI), running on    40 processors

     MPI processes distributed on     2 nodes
     path-images division:  nimage    =       2
     K-points division:     npool     =      10
     R & G space division:  proc/nbgrp/npool/nimage =       2
     14069 MiB available memory on the printing compute node when the environment starts
 
      Title line not specified: using 'default'.

     Reading xml data from directory:

     /fastscratch/tsievers/QE_TMP_DIR/si_ph_bench_nimages_2_n_procs_40_0.save/

     IMPORTANT: XC functional enforced from input :
     Exchange-correlation= PW
                           (   1   4   0   0   0   0   0)
     Any further DFT definition will be discarded
     Please, verify this is what you really want

 
     Parallelization info
     --------------------
     sticks:   dense  smooth     PW     G-vecs:    dense   smooth      PW
     Min         501     501    150                10436    10436    1738
     Max         502     502    151                10439    10439    1741
     Sum        1003    1003    301                20875    20875    3479
 
     Using Slab Decomposition
 
     Reading collected, re-writing distributed wavefunctions


     Dynamical matrices for ( 6, 6, 6)  uniform grid of q-points
     (  16 q-points):
       N         xq(1)         xq(2)         xq(3) 
       1   0.000000000   0.000000000   0.000000000
       2  -0.166666667   0.166666667  -0.166666667
       3  -0.333333333   0.333333333  -0.333333333
       4   0.500000000  -0.500000000   0.500000000
       5   0.000000000   0.333333333   0.000000000
       6  -0.166666667   0.500000000  -0.166666667
       7   0.666666667  -0.333333333   0.666666667
       8   0.500000000  -0.166666667   0.500000000
       9   0.333333333   0.000000000   0.333333333
      10   0.000000000   0.666666667   0.000000000
      11   0.833333333  -0.166666667   0.833333333
      12   0.666666667  -0.000000000   0.666666667
      13   0.000000000  -1.000000000   0.000000000
      14   0.666666667  -0.333333333   1.000000000
      15   0.500000000  -0.166666667   0.833333333
      16  -0.333333333  -1.000000000   0.000000000

      Image parallelization. There are  2 images and    76 representations
      The estimated total work is  1512 self-consistent (scf) runs
      I am image number     1 and my work is about  759 scf runs. I calculate: 
      q point number     9, representations:
       5 6
      q point number    10, representations:
       0 1 2 3 4
      q point number    11, representations:
       0 1 2 3 4 5 6
      q point number    12, representations:
       0 1 2 3 4 5 6
      q point number    13, representations:
       0 1 2 3
      q point number    14, representations:
       0 1 2 3 4 5 6
      q point number    15, representations:
       0 1 2 3 4 5 6
      q point number    16, representations:
       0 1 2 3

     Calculation of q =    0.3333333   0.0000000   0.3333333

     Subspace diagonalization in iterative solution of the eigenvalue problem:
     a serial algorithm will be used

 
     Parallelization info
     --------------------
     sticks:   dense  smooth     PW     G-vecs:    dense   smooth      PW
     Min         501     501    156                10436    10436    1917
     Max         502     502    157                10439    10439    1922
     Sum        1003    1003    313                20875    20875    3839
 
     Using Slab Decomposition
 

     Title: 
     default                                                                    


     bravais-lattice index     =            2
     lattice parameter (alat)  =      10.1899  a.u.
     unit-cell volume          =     264.5151 (a.u.)^3
     number of atoms/cell      =            2
     number of atomic types    =            1
     number of electrons       =         8.00
     number of Kohn-Sham states=            4
     kinetic-energy cutoff     =      70.0000  Ry
     charge density cutoff     =     280.0000  Ry
     Exchange-correlation= PW
                           (   1   4   0   0   0   0   0)

     celldm(1)=  10.189905  celldm(2)=   0.000000  celldm(3)=   0.000000
     celldm(4)=   0.000000  celldm(5)=   0.000000  celldm(6)=   0.000000

     crystal axes: (cart. coord. in units of alat)
               a(1) = (  -0.500000   0.000000   0.500000 )  
               a(2) = (   0.000000   0.500000   0.500000 )  
               a(3) = (  -0.500000   0.500000   0.000000 )  

     reciprocal axes: (cart. coord. in units 2 pi/alat)
               b(1) = ( -1.000000 -1.000000  1.000000 )  
               b(2) = (  1.000000  1.000000  1.000000 )  
               b(3) = ( -1.000000  1.000000 -1.000000 )  


     PseudoPot. # 1 for Si read from file:
     /fastscratch/tsievers/si_ph_benchmark_images//pseudos/Si.nc.UPF
     MD5 check sum: 9e2d726316af3d4752eea8ab0afbb951
     Pseudo is Norm-conserving + core correction, Zval =  4.0
     Generated using ONCVPSP code by D. R. Hamann
     Using radial grid of 1510 points,  6 beta functions with: 
                l(1) =   0
                l(2) =   0
                l(3) =   1
                l(4) =   1
                l(5) =   2
                l(6) =   2

     atomic species   valence    mass     pseudopotential
        Si             4.00    28.08550     Si( 1.00)

     48 Sym. Ops., with inversion, found



   Cartesian axes

     site n.     atom                  positions (alat units)
         1           Si  tau(   1) = (   0.0000000   0.0000000   0.0000000  )
         2           Si  tau(   2) = (  -0.2500000   0.2500000   0.2500000  )

     number of k points=   468

     Number of k-points >= 100: set verbosity='high' to print them.

     Dense  grid:    20875 G-vectors     FFT dimensions: (  40,  40,  40)

     Estimated max dynamical RAM per process >       6.41 MB

     Estimated total dynamical RAM >     128.11 MB

     The potential is recalculated from file :
     /fastscratch/tsievers/QE_TMP_DIR/_ph1/si_ph_bench_nimages_2_n_procs_40_0.save/charge-density

     Starting wfcs are    8 atomic wfcs

     Band Structure Calculation
     Davidson diagonalization with overlap

     ethr =  1.25E-10,  avg # of iterations = 12.8

     total cpu time spent up to now is        5.7 secs

     End of band structure calculation

     Number of k-points >= 100: set verbosity='high' to print the bands.

     highest occupied level (ev):     6.1106

     Writing config to output data dir /fastscratch/tsievers/QE_TMP_DIR/_ph1/si_ph_bench_nimages_2_n_procs_40_0.save/

     default                                                                    

     bravais-lattice index     =            2
     lattice parameter (alat)  =      10.1899  a.u.
     unit-cell volume          =     264.5151 (a.u.)^3
     number of atoms/cell      =            2
     number of atomic types    =            1
     kinetic-energy cut-off    =      70.0000  Ry
     charge density cut-off    =     280.0000  Ry
     convergence threshold     =      1.0E-15
     beta                      =       0.7000
     number of iterations used =            4
     Exchange-correlation= PW
                           (   1   4   0   0   0   0   0)


     celldm(1)=   10.18990  celldm(2)=    0.00000  celldm(3)=    0.00000
     celldm(4)=    0.00000  celldm(5)=    0.00000  celldm(6)=    0.00000

     crystal axes: (cart. coord. in units of alat)
               a(1) = ( -0.5000  0.0000  0.5000 )  
               a(2) = (  0.0000  0.5000  0.5000 )  
               a(3) = ( -0.5000  0.5000  0.0000 )  

     reciprocal axes: (cart. coord. in units 2 pi/alat)
               b(1) = ( -1.0000 -1.0000  1.0000 )  
               b(2) = (  1.0000  1.0000  1.0000 )  
               b(3) = ( -1.0000  1.0000 -1.0000 )  


     Atoms inside the unit cell: 

     Cartesian axes

     site n.  atom      mass           positions (alat units)
        1     Si  28.0855   tau(    1) = (    0.00000    0.00000    0.00000  )
        2     Si  28.0855   tau(    2) = (   -0.25000    0.25000    0.25000  )

     Computing dynamical matrix for 
                    q = (   0.3333333   0.0000000   0.3333333 )
 
      4 Sym.Ops. (no q -> -q+G )


     G cutoff =  736.4420  (  10439 G-vectors)     FFT grid: ( 40, 40, 40)
     number of k points=   468

     PseudoPot. # 1 for Si read from file:
     /fastscratch/tsievers/si_ph_benchmark_images//pseudos/Si.nc.UPF
     MD5 check sum: 9e2d726316af3d4752eea8ab0afbb951
     Pseudo is Norm-conserving + core correction, Zval =  4.0
     Generated using ONCVPSP code by D. R. Hamann
     Using radial grid of 1510 points,  6 beta functions with: 
                l(1) =   0
                l(2) =   0
                l(3) =   1
                l(4) =   1
                l(5) =   2
                l(6) =   2

     Mode symmetry, C_2v (mm2)  point group:


     Atomic displacements:
     There are    6 irreducible representations

     Representation     1      1 modes -  Not done in this run

     Representation     2      1 modes -  Not done in this run

     Representation     3      1 modes -  Not done in this run

     Representation     4      1 modes -  Not done in this run

     Representation     5      1 modes -  To be done

     Representation     6      1 modes -  To be done

     Compute atoms:     1,    2,


     PHONON       :      5.38s CPU      7.35s WALL



     Representation #   5 mode #   5

     Self-consistent Calculation

      iter #   1 total cpu time :     8.2 secs   av.it.:   5.4
      thresh= 1.000E-02 alpha_mix =  0.700 |ddv_scf|^2 =  1.065E-07

      iter #   2 total cpu time :     9.8 secs   av.it.:  10.7
      thresh= 3.264E-05 alpha_mix =  0.700 |ddv_scf|^2 =  3.512E-08

      iter #   3 total cpu time :    11.3 secs   av.it.:  10.2
      thresh= 1.874E-05 alpha_mix =  0.700 |ddv_scf|^2 =  4.469E-10

      iter #   4 total cpu time :    12.7 secs   av.it.:  10.3
      thresh= 2.114E-06 alpha_mix =  0.700 |ddv_scf|^2 =  7.377E-12

      iter #   5 total cpu time :    14.3 secs   av.it.:  10.5
      thresh= 2.716E-07 alpha_mix =  0.700 |ddv_scf|^2 =  2.489E-13

      iter #   6 total cpu time :    15.8 secs   av.it.:  10.6
      thresh= 4.989E-08 alpha_mix =  0.700 |ddv_scf|^2 =  5.579E-15

      iter #   7 total cpu time :    17.3 secs   av.it.:  10.7
      thresh= 7.469E-09 alpha_mix =  0.700 |ddv_scf|^2 =  3.886E-17

     End of self-consistent calculation

     Convergence has been achieved 


     Representation #   6 mode #   6

     Self-consistent Calculation

      iter #   1 total cpu time :    18.9 secs   av.it.:   6.1
      thresh= 1.000E-02 alpha_mix =  0.700 |ddv_scf|^2 =  1.175E-06

      iter #   2 total cpu time :    20.7 secs   av.it.:  10.6
      thresh= 1.084E-04 alpha_mix =  0.700 |ddv_scf|^2 =  4.122E-07

      iter #   3 total cpu time :    22.2 secs   av.it.:  10.1
      thresh= 6.420E-05 alpha_mix =  0.700 |ddv_scf|^2 =  1.146E-09

      iter #   4 total cpu time :    24.0 secs   av.it.:  10.4
      thresh= 3.386E-06 alpha_mix =  0.700 |ddv_scf|^2 =  5.982E-11

      iter #   5 total cpu time :    25.5 secs   av.it.:  10.4
      thresh= 7.734E-07 alpha_mix =  0.700 |ddv_scf|^2 =  1.895E-13

      iter #   6 total cpu time :    27.0 secs   av.it.:  10.4
      thresh= 4.353E-08 alpha_mix =  0.700 |ddv_scf|^2 =  2.324E-15

      iter #   7 total cpu time :    28.2 secs   av.it.:  10.6
      thresh= 4.821E-09 alpha_mix =  0.700 |ddv_scf|^2 =  7.183E-17

     End of self-consistent calculation

     Convergence has been achieved 

     Not diagonalizing because representation    0 is not done

     Calculation of q =    0.0000000   0.6666667   0.0000000
 
     Parallelization info
     --------------------
     sticks:   dense  smooth     PW     G-vecs:    dense   smooth      PW
     Min         501     501    156                10436    10436    1917
     Max         502     502    157                10439    10439    1922
     Sum        1003    1003    313                20875    20875    3839
 
     Using Slab Decomposition
 

     Title: 
     default                                                                    


     bravais-lattice index     =            2
     lattice parameter (alat)  =      10.1899  a.u.
     unit-cell volume          =     264.5151 (a.u.)^3
     number of atoms/cell      =            2
     number of atomic types    =            1
     number of electrons       =         8.00
     number of Kohn-Sham states=            4
     kinetic-energy cutoff     =      70.0000  Ry
     charge density cutoff     =     280.0000  Ry
     Exchange-correlation= PW
                           (   1   4   0   0   0   0   0)

     celldm(1)=  10.189905  celldm(2)=   0.000000  celldm(3)=   0.000000
     celldm(4)=   0.000000  celldm(5)=   0.000000  celldm(6)=   0.000000

     crystal axes: (cart. coord. in units of alat)
               a(1) = (  -0.500000   0.000000   0.500000 )  
               a(2) = (   0.000000   0.500000   0.500000 )  
               a(3) = (  -0.500000   0.500000   0.000000 )  

     reciprocal axes: (cart. coord. in units 2 pi/alat)
               b(1) = ( -1.000000 -1.000000  1.000000 )  
               b(2) = (  1.000000  1.000000  1.000000 )  
               b(3) = ( -1.000000  1.000000 -1.000000 )  


     PseudoPot. # 1 for Si read from file:
     /fastscratch/tsievers/si_ph_benchmark_images//pseudos/Si.nc.UPF
     MD5 check sum: 9e2d726316af3d4752eea8ab0afbb951
     Pseudo is Norm-conserving + core correction, Zval =  4.0
     Generated using ONCVPSP code by D. R. Hamann
     Using radial grid of 1510 points,  6 beta functions with: 
                l(1) =   0
                l(2) =   0
                l(3) =   1
                l(4) =   1
                l(5) =   2
                l(6) =   2

     atomic species   valence    mass     pseudopotential
        Si             4.00    28.08550     Si( 1.00)

     48 Sym. Ops., with inversion, found



   Cartesian axes

     site n.     atom                  positions (alat units)
         1           Si  tau(   1) = (   0.0000000   0.0000000   0.0000000  )
         2           Si  tau(   2) = (  -0.2500000   0.2500000   0.2500000  )

     number of k points=   252

     Number of k-points >= 100: set verbosity='high' to print them.

     Dense  grid:    20875 G-vectors     FFT dimensions: (  40,  40,  40)

     Estimated max dynamical RAM per process >       6.41 MB

     Estimated total dynamical RAM >     128.30 MB

     The potential is recalculated from file :
     /fastscratch/tsievers/QE_TMP_DIR/_ph1/si_ph_bench_nimages_2_n_procs_40_0.save/charge-density

     Starting wfcs are    8 atomic wfcs

     Band Structure Calculation
     Davidson diagonalization with overlap

     ethr =  1.25E-10,  avg # of iterations = 12.8

     total cpu time spent up to now is        8.0 secs

     End of band structure calculation

     Number of k-points >= 100: set verbosity='high' to print the bands.

     highest occupied level (ev):     6.1106

     Writing config to output data dir /fastscratch/tsievers/QE_TMP_DIR/_ph1/si_ph_bench_nimages_2_n_procs_40_0.save/

     default                                                                    

     bravais-lattice index     =            2
     lattice parameter (alat)  =      10.1899  a.u.
     unit-cell volume          =     264.5151 (a.u.)^3
     number of atoms/cell      =            2
     number of atomic types    =            1
     kinetic-energy cut-off    =      70.0000  Ry
     charge density cut-off    =     280.0000  Ry
     convergence threshold     =      1.0E-15
     beta                      =       0.7000
     number of iterations used =            4
     Exchange-correlation= PW
                           (   1   4   0   0   0   0   0)


     celldm(1)=   10.18990  celldm(2)=    0.00000  celldm(3)=    0.00000
     celldm(4)=    0.00000  celldm(5)=    0.00000  celldm(6)=    0.00000

     crystal axes: (cart. coord. in units of alat)
               a(1) = ( -0.5000  0.0000  0.5000 )  
               a(2) = (  0.0000  0.5000  0.5000 )  
               a(3) = ( -0.5000  0.5000  0.0000 )  

     reciprocal axes: (cart. coord. in units 2 pi/alat)
               b(1) = ( -1.0000 -1.0000  1.0000 )  
               b(2) = (  1.0000  1.0000  1.0000 )  
               b(3) = ( -1.0000  1.0000 -1.0000 )  


     Atoms inside the unit cell: 

     Cartesian axes

     site n.  atom      mass           positions (alat units)
        1     Si  28.0855   tau(    1) = (    0.00000    0.00000    0.00000  )
        2     Si  28.0855   tau(    2) = (   -0.25000    0.25000    0.25000  )

     Computing dynamical matrix for 
                    q = (   0.0000000   0.6666667   0.0000000 )
 
      8 Sym.Ops. (no q -> -q+G )


     G cutoff =  736.4420  (  10439 G-vectors)     FFT grid: ( 40, 40, 40)
     number of k points=   252

     PseudoPot. # 1 for Si read from file:
     /fastscratch/tsievers/si_ph_benchmark_images//pseudos/Si.nc.UPF
     MD5 check sum: 9e2d726316af3d4752eea8ab0afbb951
     Pseudo is Norm-conserving + core correction, Zval =  4.0
     Generated using ONCVPSP code by D. R. Hamann
     Using radial grid of 1510 points,  6 beta functions with: 
                l(1) =   0
                l(2) =   0
                l(3) =   1
                l(4) =   1
                l(5) =   2
                l(6) =   2

     Mode symmetry, C_4v (4mm)  point group:


     Atomic displacements:
     There are    4 irreducible representations

     Representation     1      1 modes -  To be done

     Representation     2      1 modes -  To be done

     Representation     3      2 modes -  To be done

     Representation     4      2 modes -  To be done



     Alpha used in Ewald sum =   2.8000
     PHONON       :     22.93s CPU     32.73s WALL



     Representation #   1 mode #   1

     Self-consistent Calculation

      iter #   1 total cpu time :    33.4 secs   av.it.:   6.6
      thresh= 1.000E-02 alpha_mix =  0.700 |ddv_scf|^2 =  9.954E-05

      iter #   2 total cpu time :    34.4 secs   av.it.:   9.9
      thresh= 9.977E-04 alpha_mix =  0.700 |ddv_scf|^2 =  6.208E-04

      iter #   3 total cpu time :    35.6 secs   av.it.:   8.6
      thresh= 2.492E-03 alpha_mix =  0.700 |ddv_scf|^2 =  4.233E-09

      iter #   4 total cpu time :    36.7 secs   av.it.:  10.1
      thresh= 6.506E-06 alpha_mix =  0.700 |ddv_scf|^2 =  2.493E-10

      iter #   5 total cpu time :    37.7 secs   av.it.:  10.1
      thresh= 1.579E-06 alpha_mix =  0.700 |ddv_scf|^2 =  7.848E-12

      iter #   6 total cpu time :    38.8 secs   av.it.:  10.2
      thresh= 2.801E-07 alpha_mix =  0.700 |ddv_scf|^2 =  1.540E-13

      iter #   7 total cpu time :    39.5 secs   av.it.:   9.4
      thresh= 3.924E-08 alpha_mix =  0.700 |ddv_scf|^2 =  2.980E-16

     End of self-consistent calculation

     Convergence has been achieved 


     Representation #   2 mode #   2

     Self-consistent Calculation

      iter #   1 total cpu time :    40.4 secs   av.it.:   6.0
      thresh= 1.000E-02 alpha_mix =  0.700 |ddv_scf|^2 =  1.332E-06

      iter #   2 total cpu time :    41.6 secs   av.it.:  10.3
      thresh= 1.154E-04 alpha_mix =  0.700 |ddv_scf|^2 =  5.610E-07

      iter #   3 total cpu time :    42.7 secs   av.it.:   9.8
      thresh= 7.490E-05 alpha_mix =  0.700 |ddv_scf|^2 =  8.311E-10

      iter #   4 total cpu time :    43.8 secs   av.it.:  10.2
      thresh= 2.883E-06 alpha_mix =  0.700 |ddv_scf|^2 =  4.890E-11

      iter #   5 total cpu time :    44.9 secs   av.it.:  10.3
      thresh= 6.993E-07 alpha_mix =  0.700 |ddv_scf|^2 =  8.674E-14

      iter #   6 total cpu time :    46.0 secs   av.it.:  10.3
      thresh= 2.945E-08 alpha_mix =  0.700 |ddv_scf|^2 =  1.775E-15

      iter #   7 total cpu time :    46.7 secs   av.it.:  10.3
      thresh= 4.213E-09 alpha_mix =  0.700 |ddv_scf|^2 =  2.821E-17

     End of self-consistent calculation

     Convergence has been achieved 


     Representation #   3 modes #   3   4

     Self-consistent Calculation

      iter #   1 total cpu time :    48.6 secs   av.it.:   6.0
      thresh= 1.000E-02 alpha_mix =  0.700 |ddv_scf|^2 =  1.211E-07

      iter #   2 total cpu time :    50.7 secs   av.it.:  11.2
      thresh= 3.481E-05 alpha_mix =  0.700 |ddv_scf|^2 =  2.568E-08

      iter #   3 total cpu time :    53.9 secs   av.it.:  10.9
      thresh= 1.602E-05 alpha_mix =  0.700 |ddv_scf|^2 =  7.906E-11

      iter #   4 total cpu time :    56.8 secs   av.it.:  11.3
      thresh= 8.891E-07 alpha_mix =  0.700 |ddv_scf|^2 =  2.393E-13

      iter #   5 total cpu time :    59.3 secs   av.it.:  11.3
      thresh= 4.892E-08 alpha_mix =  0.700 |ddv_scf|^2 =  2.731E-15

      iter #   6 total cpu time :    60.7 secs   av.it.:  11.3
      thresh= 5.226E-09 alpha_mix =  0.700 |ddv_scf|^2 =  4.492E-17

     End of self-consistent calculation

     Convergence has been achieved 


     Representation #   4 modes #   5   6

     Self-consistent Calculation

      iter #   1 total cpu time :    63.5 secs   av.it.:   6.2
      thresh= 1.000E-02 alpha_mix =  0.700 |ddv_scf|^2 =  1.906E-07

      iter #   2 total cpu time :    65.6 secs   av.it.:  11.3
      thresh= 4.365E-05 alpha_mix =  0.700 |ddv_scf|^2 =  4.099E-08

      iter #   3 total cpu time :    69.1 secs   av.it.:  11.0
      thresh= 2.025E-05 alpha_mix =  0.700 |ddv_scf|^2 =  8.738E-11

      iter #   4 total cpu time :    71.5 secs   av.it.:  11.3
      thresh= 9.348E-07 alpha_mix =  0.700 |ddv_scf|^2 =  2.190E-13

      iter #   5 total cpu time :    73.6 secs   av.it.:  11.3
      thresh= 4.680E-08 alpha_mix =  0.700 |ddv_scf|^2 =  3.666E-15

      iter #   6 total cpu time :    75.1 secs   av.it.:  11.4
      thresh= 6.054E-09 alpha_mix =  0.700 |ddv_scf|^2 =  4.320E-17

     End of self-consistent calculation

     Convergence has been achieved 
 
     Number of q in the star =    6
     List of q in the star:
          1   0.000000000   0.666666667   0.000000000
          2   0.000000000  -0.666666667   0.000000000
          3   0.666666667   0.000000000   0.000000000
          4  -0.666666667   0.000000000   0.000000000
          5   0.000000000   0.000000000   0.666666667
          6   0.000000000   0.000000000  -0.666666667

     Diagonalizing the dynamical matrix

     q = (    0.000000000   0.666666667   0.000000000 ) 

 **************************************************************************
     freq (    1) =       4.039137 [THz] =     134.731117 [cm-1]
     freq (    2) =       4.039137 [THz] =     134.731117 [cm-1]
     freq (    3) =       9.188771 [THz] =     306.504411 [cm-1]
     freq (    4) =      13.988711 [THz] =     466.613174 [cm-1]
     freq (    5) =      13.988711 [THz] =     466.613174 [cm-1]
     freq (    6) =      14.186781 [THz] =     473.220087 [cm-1]
 **************************************************************************

     Mode symmetry, C_4v (4mm)  point group:

     freq (   1-   2) =        134.7  [cm-1]   --> E    G_5 D_5       
     freq (   3-   3) =        306.5  [cm-1]   --> A_1  G_1 D_1       
     freq (   4-   5) =        466.6  [cm-1]   --> E    G_5 D_5       
     freq (   6-   6) =        473.2  [cm-1]   --> B_2  G_4 D_2'      

     Calculation of q =    0.8333333  -0.1666667   0.8333333
 
     Parallelization info
     --------------------
     sticks:   dense  smooth     PW     G-vecs:    dense   smooth      PW
     Min         501     501    174                10436    10436    2142
     Max         502     502    175                10439    10439    2143
     Sum        1003    1003    349                20875    20875    4285
 
     Using Slab Decomposition
 

     Title: 
     default                                                                    


     bravais-lattice index     =            2
     lattice parameter (alat)  =      10.1899  a.u.
     unit-cell volume          =     264.5151 (a.u.)^3
     number of atoms/cell      =            2
     number of atomic types    =            1
     number of electrons       =         8.00
     number of Kohn-Sham states=            4
     kinetic-energy cutoff     =      70.0000  Ry
     charge density cutoff     =     280.0000  Ry
     Exchange-correlation= PW
                           (   1   4   0   0   0   0   0)

     celldm(1)=  10.189905  celldm(2)=   0.000000  celldm(3)=   0.000000
     celldm(4)=   0.000000  celldm(5)=   0.000000  celldm(6)=   0.000000

     crystal axes: (cart. coord. in units of alat)
               a(1) = (  -0.500000   0.000000   0.500000 )  
               a(2) = (   0.000000   0.500000   0.500000 )  
               a(3) = (  -0.500000   0.500000   0.000000 )  

     reciprocal axes: (cart. coord. in units 2 pi/alat)
               b(1) = ( -1.000000 -1.000000  1.000000 )  
               b(2) = (  1.000000  1.000000  1.000000 )  
               b(3) = ( -1.000000  1.000000 -1.000000 )  


     PseudoPot. # 1 for Si read from file:
     /fastscratch/tsievers/si_ph_benchmark_images//pseudos/Si.nc.UPF
     MD5 check sum: 9e2d726316af3d4752eea8ab0afbb951
     Pseudo is Norm-conserving + core correction, Zval =  4.0
     Generated using ONCVPSP code by D. R. Hamann
     Using radial grid of 1510 points,  6 beta functions with: 
                l(1) =   0
                l(2) =   0
                l(3) =   1
                l(4) =   1
                l(5) =   2
                l(6) =   2

     atomic species   valence    mass     pseudopotential
        Si             4.00    28.08550     Si( 1.00)

     48 Sym. Ops., with inversion, found



   Cartesian axes

     site n.     atom                  positions (alat units)
         1           Si  tau(   1) = (   0.0000000   0.0000000   0.0000000  )
         2           Si  tau(   2) = (  -0.2500000   0.2500000   0.2500000  )

     number of k points=   936

     Number of k-points >= 100: set verbosity='high' to print them.

     Dense  grid:    20875 G-vectors     FFT dimensions: (  40,  40,  40)

     Estimated max dynamical RAM per process >       6.44 MB

     Estimated total dynamical RAM >     128.81 MB

     The potential is recalculated from file :
     /fastscratch/tsievers/QE_TMP_DIR/_ph1/si_ph_bench_nimages_2_n_procs_40_0.save/charge-density

     Starting wfcs are    8 atomic wfcs

     Band Structure Calculation
     Davidson diagonalization with overlap

     ethr =  1.25E-10,  avg # of iterations = 12.8

     total cpu time spent up to now is       19.6 secs

     End of band structure calculation

     Number of k-points >= 100: set verbosity='high' to print the bands.

     highest occupied level (ev):     6.1106

     Writing config to output data dir /fastscratch/tsievers/QE_TMP_DIR/_ph1/si_ph_bench_nimages_2_n_procs_40_0.save/

     default                                                                    

     bravais-lattice index     =            2
     lattice parameter (alat)  =      10.1899  a.u.
     unit-cell volume          =     264.5151 (a.u.)^3
     number of atoms/cell      =            2
     number of atomic types    =            1
     kinetic-energy cut-off    =      70.0000  Ry
     charge density cut-off    =     280.0000  Ry
     convergence threshold     =      1.0E-15
     beta                      =       0.7000
     number of iterations used =            4
     Exchange-correlation= PW
                           (   1   4   0   0   0   0   0)


     celldm(1)=   10.18990  celldm(2)=    0.00000  celldm(3)=    0.00000
     celldm(4)=    0.00000  celldm(5)=    0.00000  celldm(6)=    0.00000

     crystal axes: (cart. coord. in units of alat)
               a(1) = ( -0.5000  0.0000  0.5000 )  
               a(2) = (  0.0000  0.5000  0.5000 )  
               a(3) = ( -0.5000  0.5000  0.0000 )  

     reciprocal axes: (cart. coord. in units 2 pi/alat)
               b(1) = ( -1.0000 -1.0000  1.0000 )  
               b(2) = (  1.0000  1.0000  1.0000 )  
               b(3) = ( -1.0000  1.0000 -1.0000 )  


     Atoms inside the unit cell: 

     Cartesian axes

     site n.  atom      mass           positions (alat units)
        1     Si  28.0855   tau(    1) = (    0.00000    0.00000    0.00000  )
        2     Si  28.0855   tau(    2) = (   -0.25000    0.25000    0.25000  )

     Computing dynamical matrix for 
                    q = (   0.8333333  -0.1666667   0.8333333 )
 
      2 Sym.Ops. (no q -> -q+G )


     G cutoff =  736.4420  (  10439 G-vectors)     FFT grid: ( 40, 40, 40)
     number of k points=   936

     PseudoPot. # 1 for Si read from file:
     /fastscratch/tsievers/si_ph_benchmark_images//pseudos/Si.nc.UPF
     MD5 check sum: 9e2d726316af3d4752eea8ab0afbb951
     Pseudo is Norm-conserving + core correction, Zval =  4.0
     Generated using ONCVPSP code by D. R. Hamann
     Using radial grid of 1510 points,  6 beta functions with: 
                l(1) =   0
                l(2) =   0
                l(3) =   1
                l(4) =   1
                l(5) =   2
                l(6) =   2

     Mode symmetry, C_s (m)     point group:


     Atomic displacements:
     There are    6 irreducible representations

     Representation     1      1 modes -  To be done

     Representation     2      1 modes -  To be done

     Representation     3      1 modes -  To be done

     Representation     4      1 modes -  To be done

     Representation     5      1 modes -  To be done

     Representation     6      1 modes -  To be done



     Alpha used in Ewald sum =   2.8000
     PHONON       :     57.96s CPU   1m30.14s WALL



     Representation #   1 mode #   1

     Self-consistent Calculation

      iter #   1 total cpu time :    91.8 secs   av.it.:   6.5
      thresh= 1.000E-02 alpha_mix =  0.700 |ddv_scf|^2 =  1.083E-05

      iter #   2 total cpu time :    94.5 secs   av.it.:  10.4
      thresh= 3.292E-04 alpha_mix =  0.700 |ddv_scf|^2 =  2.655E-05

      iter #   3 total cpu time :    97.0 secs   av.it.:   9.4
      thresh= 5.153E-04 alpha_mix =  0.700 |ddv_scf|^2 =  1.234E-07

      iter #   4 total cpu time :    99.6 secs   av.it.:   9.9
      thresh= 3.512E-05 alpha_mix =  0.700 |ddv_scf|^2 =  9.140E-10

      iter #   5 total cpu time :   102.1 secs   av.it.:  10.4
      thresh= 3.023E-06 alpha_mix =  0.700 |ddv_scf|^2 =  1.580E-10

      iter #   6 total cpu time :   104.7 secs   av.it.:  10.3
      thresh= 1.257E-06 alpha_mix =  0.700 |ddv_scf|^2 =  3.221E-12

      iter #   7 total cpu time :   107.2 secs   av.it.:  10.5
      thresh= 1.795E-07 alpha_mix =  0.700 |ddv_scf|^2 =  1.088E-13

      iter #   8 total cpu time :   110.2 secs   av.it.:  10.6
      thresh= 3.298E-08 alpha_mix =  0.700 |ddv_scf|^2 =  2.946E-14

      iter #   9 total cpu time :   113.2 secs   av.it.:  10.2
      thresh= 1.716E-08 alpha_mix =  0.700 |ddv_scf|^2 =  2.232E-14

      iter #  10 total cpu time :   115.3 secs   av.it.:   9.6
      thresh= 1.494E-08 alpha_mix =  0.700 |ddv_scf|^2 =  7.634E-16

     End of self-consistent calculation

     Convergence has been achieved 


     Representation #   2 mode #   2

     Self-consistent Calculation

      iter #   1 total cpu time :   117.7 secs   av.it.:   6.5
      thresh= 1.000E-02 alpha_mix =  0.700 |ddv_scf|^2 =  1.040E-05

      iter #   2 total cpu time :   120.2 secs   av.it.:  10.5
      thresh= 3.225E-04 alpha_mix =  0.700 |ddv_scf|^2 =  2.545E-05

      iter #   3 total cpu time :   124.1 secs   av.it.:   9.5
      thresh= 5.045E-04 alpha_mix =  0.700 |ddv_scf|^2 =  1.219E-07

      iter #   4 total cpu time :   127.7 secs   av.it.:  10.0
      thresh= 3.491E-05 alpha_mix =  0.700 |ddv_scf|^2 =  8.402E-10

      iter #   5 total cpu time :   130.2 secs   av.it.:  10.4
      thresh= 2.899E-06 alpha_mix =  0.700 |ddv_scf|^2 =  9.368E-11

      iter #   6 total cpu time :   132.9 secs   av.it.:  10.4
      thresh= 9.679E-07 alpha_mix =  0.700 |ddv_scf|^2 =  5.830E-12

      iter #   7 total cpu time :   135.6 secs   av.it.:  10.5
      thresh= 2.415E-07 alpha_mix =  0.700 |ddv_scf|^2 =  2.961E-13

      iter #   8 total cpu time :   138.8 secs   av.it.:  10.5
      thresh= 5.441E-08 alpha_mix =  0.700 |ddv_scf|^2 =  2.450E-14

      iter #   9 total cpu time :   141.7 secs   av.it.:  10.2
      thresh= 1.565E-08 alpha_mix =  0.700 |ddv_scf|^2 =  1.977E-14

      iter #  10 total cpu time :   144.2 secs   av.it.:   9.8
      thresh= 1.406E-08 alpha_mix =  0.700 |ddv_scf|^2 =  1.478E-15

      iter #  11 total cpu time :   147.7 secs   av.it.:  10.1
      thresh= 3.844E-09 alpha_mix =  0.700 |ddv_scf|^2 =  5.978E-17

     End of self-consistent calculation

     Convergence has been achieved 


     Representation #   3 mode #   3

     Self-consistent Calculation

      iter #   1 total cpu time :   149.7 secs   av.it.:   6.3
      thresh= 1.000E-02 alpha_mix =  0.700 |ddv_scf|^2 =  4.968E-06

      iter #   2 total cpu time :   152.4 secs   av.it.:  10.4
      thresh= 2.229E-04 alpha_mix =  0.700 |ddv_scf|^2 =  9.933E-06

      iter #   3 total cpu time :   154.8 secs   av.it.:   9.4
      thresh= 3.152E-04 alpha_mix =  0.700 |ddv_scf|^2 =  1.553E-07

      iter #   4 total cpu time :   157.2 secs   av.it.:   9.8
      thresh= 3.941E-05 alpha_mix =  0.700 |ddv_scf|^2 =  5.815E-10

      iter #   5 total cpu time :   161.3 secs   av.it.:  10.5
      thresh= 2.411E-06 alpha_mix =  0.700 |ddv_scf|^2 =  1.651E-10

      iter #   6 total cpu time :   163.8 secs   av.it.:  10.2
      thresh= 1.285E-06 alpha_mix =  0.700 |ddv_scf|^2 =  3.633E-12

      iter #   7 total cpu time :   166.3 secs   av.it.:  10.5
      thresh= 1.906E-07 alpha_mix =  0.700 |ddv_scf|^2 =  1.259E-13

      iter #   8 total cpu time :   169.5 secs   av.it.:  10.5
      thresh= 3.548E-08 alpha_mix =  0.700 |ddv_scf|^2 =  1.596E-14

      iter #   9 total cpu time :   172.4 secs   av.it.:  10.3
      thresh= 1.263E-08 alpha_mix =  0.700 |ddv_scf|^2 =  1.036E-14

      iter #  10 total cpu time :   174.5 secs   av.it.:   9.5
      thresh= 1.018E-08 alpha_mix =  0.700 |ddv_scf|^2 =  2.426E-16

     End of self-consistent calculation

     Convergence has been achieved 


     Representation #   4 mode #   4

     Self-consistent Calculation

      iter #   1 total cpu time :   176.7 secs   av.it.:   6.3
      thresh= 1.000E-02 alpha_mix =  0.700 |ddv_scf|^2 =  4.531E-06

      iter #   2 total cpu time :   179.5 secs   av.it.:  10.6
      thresh= 2.129E-04 alpha_mix =  0.700 |ddv_scf|^2 =  8.805E-06

      iter #   3 total cpu time :   182.0 secs   av.it.:   9.6
      thresh= 2.967E-04 alpha_mix =  0.700 |ddv_scf|^2 =  1.545E-07

      iter #   4 total cpu time :   184.5 secs   av.it.:   9.9
      thresh= 3.930E-05 alpha_mix =  0.700 |ddv_scf|^2 =  7.812E-10

      iter #   5 total cpu time :   187.6 secs   av.it.:  10.4
      thresh= 2.795E-06 alpha_mix =  0.700 |ddv_scf|^2 =  1.933E-10

      iter #   6 total cpu time :   190.9 secs   av.it.:  10.2
      thresh= 1.390E-06 alpha_mix =  0.700 |ddv_scf|^2 =  5.379E-12

      iter #   7 total cpu time :   193.5 secs   av.it.:  10.6
      thresh= 2.319E-07 alpha_mix =  0.700 |ddv_scf|^2 =  2.506E-13

      iter #   8 total cpu time :   197.2 secs   av.it.:  10.5
      thresh= 5.006E-08 alpha_mix =  0.700 |ddv_scf|^2 =  1.734E-14

      iter #   9 total cpu time :   200.1 secs   av.it.:  10.3
      thresh= 1.317E-08 alpha_mix =  0.700 |ddv_scf|^2 =  9.711E-15

      iter #  10 total cpu time :   202.4 secs   av.it.:   9.8
      thresh= 9.854E-09 alpha_mix =  0.700 |ddv_scf|^2 =  6.100E-16

     End of self-consistent calculation

     Convergence has been achieved 


     Representation #   5 mode #   5

     Self-consistent Calculation

      iter #   1 total cpu time :   204.7 secs   av.it.:   6.0
      thresh= 1.000E-02 alpha_mix =  0.700 |ddv_scf|^2 =  6.809E-07

      iter #   2 total cpu time :   216.2 secs   av.it.:  10.3
      thresh= 8.251E-05 alpha_mix =  0.700 |ddv_scf|^2 =  1.580E-07

      iter #   3 total cpu time :   218.8 secs   av.it.:  10.0
      thresh= 3.975E-05 alpha_mix =  0.700 |ddv_scf|^2 =  3.437E-10

      iter #   4 total cpu time :   221.9 secs   av.it.:  10.3
      thresh= 1.854E-06 alpha_mix =  0.700 |ddv_scf|^2 =  7.465E-13

      iter #   5 total cpu time :   224.8 secs   av.it.:  10.4
      thresh= 8.640E-08 alpha_mix =  0.700 |ddv_scf|^2 =  1.217E-14

      iter #   6 total cpu time :   227.2 secs   av.it.:  10.4
      thresh= 1.103E-08 alpha_mix =  0.700 |ddv_scf|^2 =  1.913E-16

     End of self-consistent calculation

     Convergence has been achieved 


     Representation #   6 mode #   6

     Self-consistent Calculation

      iter #   1 total cpu time :   229.9 secs   av.it.:   6.0
      thresh= 1.000E-02 alpha_mix =  0.700 |ddv_scf|^2 =  6.809E-07

      iter #   2 total cpu time :   232.4 secs   av.it.:  10.3
      thresh= 8.251E-05 alpha_mix =  0.700 |ddv_scf|^2 =  1.580E-07

      iter #   3 total cpu time :   234.8 secs   av.it.:  10.0
      thresh= 3.975E-05 alpha_mix =  0.700 |ddv_scf|^2 =  3.437E-10

      iter #   4 total cpu time :   237.9 secs   av.it.:  10.3
      thresh= 1.854E-06 alpha_mix =  0.700 |ddv_scf|^2 =  7.465E-13

      iter #   5 total cpu time :   240.8 secs   av.it.:  10.4
      thresh= 8.640E-08 alpha_mix =  0.700 |ddv_scf|^2 =  1.217E-14

      iter #   6 total cpu time :   243.0 secs   av.it.:  10.4
      thresh= 1.103E-08 alpha_mix =  0.700 |ddv_scf|^2 =  1.912E-16

     End of self-consistent calculation

     Convergence has been achieved 
 
     Number of q in the star =   24
     List of q in the star:
          1   0.833333333  -0.166666667   0.833333333
          2   0.833333333  -0.166666667  -0.833333333
          3  -0.833333333  -0.166666667   0.833333333
          4  -0.833333333  -0.166666667  -0.833333333
          5  -0.833333333   0.166666667  -0.833333333
          6  -0.833333333   0.166666667   0.833333333
          7   0.833333333   0.166666667   0.833333333
          8   0.833333333   0.166666667  -0.833333333
          9  -0.166666667   0.833333333   0.833333333
         10   0.166666667   0.833333333  -0.833333333
         11  -0.166666667  -0.833333333  -0.833333333
         12  -0.166666667   0.833333333  -0.833333333
         13   0.833333333   0.833333333  -0.166666667
         14   0.833333333  -0.833333333   0.166666667
         15  -0.833333333  -0.833333333  -0.166666667
         16  -0.833333333   0.833333333   0.166666667
         17   0.166666667  -0.833333333   0.833333333
         18  -0.833333333   0.833333333  -0.166666667
         19   0.166666667   0.833333333   0.833333333
         20  -0.166666667  -0.833333333   0.833333333
         21  -0.833333333  -0.833333333   0.166666667
         22   0.833333333   0.833333333   0.166666667
         23   0.166666667  -0.833333333  -0.833333333
         24   0.833333333  -0.833333333  -0.166666667

     Diagonalizing the dynamical matrix

     q = (    0.833333333  -0.166666667   0.833333333 ) 

 **************************************************************************
     freq (    1) =       4.143226 [THz] =     138.203134 [cm-1]
     freq (    2) =       5.444566 [THz] =     181.611157 [cm-1]
     freq (    3) =      10.258710 [THz] =     342.193728 [cm-1]
     freq (    4) =      12.504356 [THz] =     417.100432 [cm-1]
     freq (    5) =      13.907251 [THz] =     463.895957 [cm-1]
     freq (    6) =      14.207703 [THz] =     473.917950 [cm-1]
 **************************************************************************

     Mode symmetry, C_s (m)     point group:

     freq (   1-   1) =        138.2  [cm-1]   --> A''                
     freq (   2-   2) =        181.6  [cm-1]   --> A'                 
     freq (   3-   3) =        342.2  [cm-1]   --> A'                 
     freq (   4-   4) =        417.1  [cm-1]   --> A'                 
     freq (   5-   5) =        463.9  [cm-1]   --> A''                
     freq (   6-   6) =        473.9  [cm-1]   --> A'                 

     Calculation of q =    0.6666667  -0.0000000   0.6666667
 
     Parallelization info
     --------------------
     sticks:   dense  smooth     PW     G-vecs:    dense   smooth      PW
     Min         501     501    174                10436    10436    2055
     Max         502     502    175                10439    10439    2056
     Sum        1003    1003    349                20875    20875    4111
 
     Using Slab Decomposition
 

     Title: 
     default                                                                    


     bravais-lattice index     =            2
     lattice parameter (alat)  =      10.1899  a.u.
     unit-cell volume          =     264.5151 (a.u.)^3
     number of atoms/cell      =            2
     number of atomic types    =            1
     number of electrons       =         8.00
     number of Kohn-Sham states=            4
     kinetic-energy cutoff     =      70.0000  Ry
     charge density cutoff     =     280.0000  Ry
     Exchange-correlation= PW
                           (   1   4   0   0   0   0   0)

     celldm(1)=  10.189905  celldm(2)=   0.000000  celldm(3)=   0.000000
     celldm(4)=   0.000000  celldm(5)=   0.000000  celldm(6)=   0.000000

     crystal axes: (cart. coord. in units of alat)
               a(1) = (  -0.500000   0.000000   0.500000 )  
               a(2) = (   0.000000   0.500000   0.500000 )  
               a(3) = (  -0.500000   0.500000   0.000000 )  

     reciprocal axes: (cart. coord. in units 2 pi/alat)
               b(1) = ( -1.000000 -1.000000  1.000000 )  
               b(2) = (  1.000000  1.000000  1.000000 )  
               b(3) = ( -1.000000  1.000000 -1.000000 )  


     PseudoPot. # 1 for Si read from file:
     /fastscratch/tsievers/si_ph_benchmark_images//pseudos/Si.nc.UPF
     MD5 check sum: 9e2d726316af3d4752eea8ab0afbb951
     Pseudo is Norm-conserving + core correction, Zval =  4.0
     Generated using ONCVPSP code by D. R. Hamann
     Using radial grid of 1510 points,  6 beta functions with: 
                l(1) =   0
                l(2) =   0
                l(3) =   1
                l(4) =   1
                l(5) =   2
                l(6) =   2

     atomic species   valence    mass     pseudopotential
        Si             4.00    28.08550     Si( 1.00)

     48 Sym. Ops., with inversion, found



   Cartesian axes

     site n.     atom                  positions (alat units)
         1           Si  tau(   1) = (   0.0000000   0.0000000   0.0000000  )
         2           Si  tau(   2) = (  -0.2500000   0.2500000   0.2500000  )

     number of k points=   468

     Number of k-points >= 100: set verbosity='high' to print them.

     Dense  grid:    20875 G-vectors     FFT dimensions: (  40,  40,  40)

     Estimated max dynamical RAM per process >       6.43 MB

     Estimated total dynamical RAM >     128.57 MB

     The potential is recalculated from file :
     /fastscratch/tsievers/QE_TMP_DIR/_ph1/si_ph_bench_nimages_2_n_procs_40_0.save/charge-density

     Starting wfcs are    8 atomic wfcs

     Band Structure Calculation
     Davidson diagonalization with overlap

     ethr =  1.25E-10,  avg # of iterations = 12.8

     total cpu time spent up to now is       23.8 secs

     End of band structure calculation

     Number of k-points >= 100: set verbosity='high' to print the bands.

     highest occupied level (ev):     6.1106

     Writing config to output data dir /fastscratch/tsievers/QE_TMP_DIR/_ph1/si_ph_bench_nimages_2_n_procs_40_0.save/

     default                                                                    

     bravais-lattice index     =            2
     lattice parameter (alat)  =      10.1899  a.u.
     unit-cell volume          =     264.5151 (a.u.)^3
     number of atoms/cell      =            2
     number of atomic types    =            1
     kinetic-energy cut-off    =      70.0000  Ry
     charge density cut-off    =     280.0000  Ry
     convergence threshold     =      1.0E-15
     beta                      =       0.7000
     number of iterations used =            4
     Exchange-correlation= PW
                           (   1   4   0   0   0   0   0)


     celldm(1)=   10.18990  celldm(2)=    0.00000  celldm(3)=    0.00000
     celldm(4)=    0.00000  celldm(5)=    0.00000  celldm(6)=    0.00000

     crystal axes: (cart. coord. in units of alat)
               a(1) = ( -0.5000  0.0000  0.5000 )  
               a(2) = (  0.0000  0.5000  0.5000 )  
               a(3) = ( -0.5000  0.5000  0.0000 )  

     reciprocal axes: (cart. coord. in units 2 pi/alat)
               b(1) = ( -1.0000 -1.0000  1.0000 )  
               b(2) = (  1.0000  1.0000  1.0000 )  
               b(3) = ( -1.0000  1.0000 -1.0000 )  


     Atoms inside the unit cell: 

     Cartesian axes

     site n.  atom      mass           positions (alat units)
        1     Si  28.0855   tau(    1) = (    0.00000    0.00000    0.00000  )
        2     Si  28.0855   tau(    2) = (   -0.25000    0.25000    0.25000  )

     Computing dynamical matrix for 
                    q = (   0.6666667  -0.0000000   0.6666667 )
 
      4 Sym.Ops. (no q -> -q+G )


     G cutoff =  736.4420  (  10439 G-vectors)     FFT grid: ( 40, 40, 40)
     number of k points=   468

     PseudoPot. # 1 for Si read from file:
     /fastscratch/tsievers/si_ph_benchmark_images//pseudos/Si.nc.UPF
     MD5 check sum: 9e2d726316af3d4752eea8ab0afbb951
     Pseudo is Norm-conserving + core correction, Zval =  4.0
     Generated using ONCVPSP code by D. R. Hamann
     Using radial grid of 1510 points,  6 beta functions with: 
                l(1) =   0
                l(2) =   0
                l(3) =   1
                l(4) =   1
                l(5) =   2
                l(6) =   2

     Mode symmetry, C_2v (mm2)  point group:


     Atomic displacements:
     There are    6 irreducible representations

     Representation     1      1 modes -  To be done

     Representation     2      1 modes -  To be done

     Representation     3      1 modes -  To be done

     Representation     4      1 modes -  To be done

     Representation     5      1 modes -  To be done

     Representation     6      1 modes -  To be done



     Alpha used in Ewald sum =   2.8000
     PHONON       :   2m57.86s CPU   4m 9.11s WALL



     Representation #   1 mode #   1

     Self-consistent Calculation

      iter #   1 total cpu time :   250.1 secs   av.it.:   6.3
      thresh= 1.000E-02 alpha_mix =  0.700 |ddv_scf|^2 =  4.556E-06

      iter #   2 total cpu time :   251.6 secs   av.it.:  10.5
      thresh= 2.134E-04 alpha_mix =  0.700 |ddv_scf|^2 =  6.181E-06

      iter #   3 total cpu time :   253.3 secs   av.it.:   9.7
      thresh= 2.486E-04 alpha_mix =  0.700 |ddv_scf|^2 =  8.667E-08

      iter #   4 total cpu time :   254.8 secs   av.it.:   9.8
      thresh= 2.944E-05 alpha_mix =  0.700 |ddv_scf|^2 =  3.358E-10

      iter #   5 total cpu time :   256.3 secs   av.it.:  10.3
      thresh= 1.832E-06 alpha_mix =  0.700 |ddv_scf|^2 =  2.599E-12

      iter #   6 total cpu time :   258.6 secs   av.it.:  10.3
      thresh= 1.612E-07 alpha_mix =  0.700 |ddv_scf|^2 =  2.761E-14

      iter #   7 total cpu time :   260.8 secs   av.it.:  10.5
      thresh= 1.662E-08 alpha_mix =  0.700 |ddv_scf|^2 =  3.771E-15

      iter #   8 total cpu time :   262.9 secs   av.it.:  10.1
      thresh= 6.141E-09 alpha_mix =  0.700 |ddv_scf|^2 =  2.802E-15

      iter #   9 total cpu time :   264.0 secs   av.it.:   9.6
      thresh= 5.293E-09 alpha_mix =  0.700 |ddv_scf|^2 =  1.230E-17

     End of self-consistent calculation

     Convergence has been achieved 


     Representation #   2 mode #   2

     Self-consistent Calculation

      iter #   1 total cpu time :   265.8 secs   av.it.:   6.6
      thresh= 1.000E-02 alpha_mix =  0.700 |ddv_scf|^2 =  1.490E-05

      iter #   2 total cpu time :   267.4 secs   av.it.:  10.4
      thresh= 3.859E-04 alpha_mix =  0.700 |ddv_scf|^2 =  2.600E-05

      iter #   3 total cpu time :   268.8 secs   av.it.:   9.5
      thresh= 5.099E-04 alpha_mix =  0.700 |ddv_scf|^2 =  1.122E-07

      iter #   4 total cpu time :   270.2 secs   av.it.:   9.8
      thresh= 3.350E-05 alpha_mix =  0.700 |ddv_scf|^2 =  5.456E-10

      iter #   5 total cpu time :   271.9 secs   av.it.:  10.0
      thresh= 2.336E-06 alpha_mix =  0.700 |ddv_scf|^2 =  5.763E-12

      iter #   6 total cpu time :   273.8 secs   av.it.:  10.1
      thresh= 2.401E-07 alpha_mix =  0.700 |ddv_scf|^2 =  1.249E-13

      iter #   7 total cpu time :   275.3 secs   av.it.:  10.0
      thresh= 3.534E-08 alpha_mix =  0.700 |ddv_scf|^2 =  1.325E-15

      iter #   8 total cpu time :   276.5 secs   av.it.:  10.5
      thresh= 3.640E-09 alpha_mix =  0.700 |ddv_scf|^2 =  7.317E-16

     End of self-consistent calculation

     Convergence has been achieved 


     Representation #   3 mode #   3

     Self-consistent Calculation

      iter #   1 total cpu time :   278.0 secs   av.it.:   6.0
      thresh= 1.000E-02 alpha_mix =  0.700 |ddv_scf|^2 =  9.601E-07

      iter #   2 total cpu time :   279.5 secs   av.it.:  10.3
      thresh= 9.798E-05 alpha_mix =  0.700 |ddv_scf|^2 =  1.742E-07

      iter #   3 total cpu time :   281.0 secs   av.it.:  10.0
      thresh= 4.173E-05 alpha_mix =  0.700 |ddv_scf|^2 =  3.661E-10

      iter #   4 total cpu time :   283.9 secs   av.it.:  10.1
      thresh= 1.913E-06 alpha_mix =  0.700 |ddv_scf|^2 =  2.624E-13

      iter #   5 total cpu time :   285.7 secs   av.it.:  10.2
      thresh= 5.123E-08 alpha_mix =  0.700 |ddv_scf|^2 =  8.752E-15

      iter #   6 total cpu time :   286.9 secs   av.it.:  10.1
      thresh= 9.355E-09 alpha_mix =  0.700 |ddv_scf|^2 =  7.735E-17

     End of self-consistent calculation

     Convergence has been achieved 


     Representation #   4 mode #   4

     Self-consistent Calculation

      iter #   1 total cpu time :   288.3 secs   av.it.:   5.2
      thresh= 1.000E-02 alpha_mix =  0.700 |ddv_scf|^2 =  2.013E-08

      iter #   2 total cpu time :   289.8 secs   av.it.:  10.2
      thresh= 1.419E-05 alpha_mix =  0.700 |ddv_scf|^2 =  9.534E-10

      iter #   3 total cpu time :   291.7 secs   av.it.:  10.2
      thresh= 3.088E-06 alpha_mix =  0.700 |ddv_scf|^2 =  6.698E-12

      iter #   4 total cpu time :   293.1 secs   av.it.:   9.9
      thresh= 2.588E-07 alpha_mix =  0.700 |ddv_scf|^2 =  1.372E-13

      iter #   5 total cpu time :   294.6 secs   av.it.:  10.1
      thresh= 3.703E-08 alpha_mix =  0.700 |ddv_scf|^2 =  1.113E-15

      iter #   6 total cpu time :   296.0 secs   av.it.:  10.2
      thresh= 3.337E-09 alpha_mix =  0.700 |ddv_scf|^2 =  2.932E-18

     End of self-consistent calculation

     Convergence has been achieved 


     Representation #   5 mode #   5

     Self-consistent Calculation

      iter #   1 total cpu time :   299.7 secs   av.it.:   5.3
      thresh= 1.000E-02 alpha_mix =  0.700 |ddv_scf|^2 =  1.234E-07

      iter #   2 total cpu time :   301.2 secs   av.it.:  10.6
      thresh= 3.513E-05 alpha_mix =  0.700 |ddv_scf|^2 =  6.864E-08

      iter #   3 total cpu time :   302.7 secs   av.it.:  10.0
      thresh= 2.620E-05 alpha_mix =  0.700 |ddv_scf|^2 =  4.391E-09

      iter #   4 total cpu time :   304.5 secs   av.it.:  10.0
      thresh= 6.626E-06 alpha_mix =  0.700 |ddv_scf|^2 =  5.529E-11

      iter #   5 total cpu time :   306.0 secs   av.it.:  10.4
      thresh= 7.435E-07 alpha_mix =  0.700 |ddv_scf|^2 =  7.587E-13

      iter #   6 total cpu time :   307.6 secs   av.it.:  10.3
      thresh= 8.710E-08 alpha_mix =  0.700 |ddv_scf|^2 =  1.085E-15

      iter #   7 total cpu time :   308.8 secs   av.it.:  10.3
      thresh= 3.294E-09 alpha_mix =  0.700 |ddv_scf|^2 =  4.230E-17

     End of self-consistent calculation

     Convergence has been achieved 


     Representation #   6 mode #   6

     Self-consistent Calculation

      iter #   1 total cpu time :   310.3 secs   av.it.:   6.4
      thresh= 1.000E-02 alpha_mix =  0.700 |ddv_scf|^2 =  6.308E-06

      iter #   2 total cpu time :   312.0 secs   av.it.:  10.4
      thresh= 2.512E-04 alpha_mix =  0.700 |ddv_scf|^2 =  8.090E-06

      iter #   3 total cpu time :   314.9 secs   av.it.:   9.7
      thresh= 2.844E-04 alpha_mix =  0.700 |ddv_scf|^2 =  1.664E-09

      iter #   4 total cpu time :   316.6 secs   av.it.:  10.2
      thresh= 4.079E-06 alpha_mix =  0.700 |ddv_scf|^2 =  7.692E-11

      iter #   5 total cpu time :   318.1 secs   av.it.:  10.4
      thresh= 8.770E-07 alpha_mix =  0.700 |ddv_scf|^2 =  3.536E-13

      iter #   6 total cpu time :   319.8 secs   av.it.:  10.3
      thresh= 5.946E-08 alpha_mix =  0.700 |ddv_scf|^2 =  1.275E-14

      iter #   7 total cpu time :   321.0 secs   av.it.:  10.2
      thresh= 1.129E-08 alpha_mix =  0.700 |ddv_scf|^2 =  4.002E-17

     End of self-consistent calculation

     Convergence has been achieved 
 
     Number of q in the star =   12
     List of q in the star:
          1   0.666666667   0.000000000   0.666666667
          2  -0.666666667   0.000000000  -0.666666667
          3  -0.666666667   0.000000000   0.666666667
          4   0.666666667   0.000000000  -0.666666667
          5   0.000000000   0.666666667   0.666666667
          6   0.000000000   0.666666667  -0.666666667
          7   0.000000000  -0.666666667  -0.666666667
          8   0.666666667   0.666666667   0.000000000
          9   0.666666667  -0.666666667   0.000000000
         10  -0.666666667  -0.666666667   0.000000000
         11  -0.666666667   0.666666667   0.000000000
         12   0.000000000  -0.666666667   0.666666667

     Diagonalizing the dynamical matrix

     q = (    0.666666667  -0.000000000   0.666666667 ) 

 **************************************************************************
     freq (    1) =       4.251851 [THz] =     141.826485 [cm-1]
     freq (    2) =       6.420795 [THz] =     214.174673 [cm-1]
     freq (    3) =      10.134227 [THz] =     338.041413 [cm-1]
     freq (    4) =      11.355107 [THz] =     378.765592 [cm-1]
     freq (    5) =      13.957419 [THz] =     465.569368 [cm-1]
     freq (    6) =      14.514336 [THz] =     484.146131 [cm-1]
 **************************************************************************

     Mode symmetry, C_2v (mm2)  point group:

     freq (   1-   1) =        141.8  [cm-1]   --> B_1  D_3  S_3      
     freq (   2-   2) =        214.2  [cm-1]   --> B_2  D_4  S_4      
     freq (   3-   3) =        338.0  [cm-1]   --> A_1  D_1  S_1      
     freq (   4-   4) =        378.8  [cm-1]   --> B_2  D_4  S_4      
     freq (   5-   5) =        465.6  [cm-1]   --> A_2  D_2  S_2      
     freq (   6-   6) =        484.1  [cm-1]   --> A_1  D_1  S_1      

     Calculation of q =    0.0000000  -1.0000000   0.0000000
 
     Parallelization info
     --------------------
     sticks:   dense  smooth     PW     G-vecs:    dense   smooth      PW
     Min         501     501    168                10436    10436    2007
     Max         502     502    169                10439    10439    2008
     Sum        1003    1003    337                20875    20875    4015
 
     Using Slab Decomposition
 

     Title: 
     default                                                                    


     bravais-lattice index     =            2
     lattice parameter (alat)  =      10.1899  a.u.
     unit-cell volume          =     264.5151 (a.u.)^3
     number of atoms/cell      =            2
     number of atomic types    =            1
     number of electrons       =         8.00
     number of Kohn-Sham states=            4
     kinetic-energy cutoff     =      70.0000  Ry
     charge density cutoff     =     280.0000  Ry
     Exchange-correlation= PW
                           (   1   4   0   0   0   0   0)

     celldm(1)=  10.189905  celldm(2)=   0.000000  celldm(3)=   0.000000
     celldm(4)=   0.000000  celldm(5)=   0.000000  celldm(6)=   0.000000

     crystal axes: (cart. coord. in units of alat)
               a(1) = (  -0.500000   0.000000   0.500000 )  
               a(2) = (   0.000000   0.500000   0.500000 )  
               a(3) = (  -0.500000   0.500000   0.000000 )  

     reciprocal axes: (cart. coord. in units 2 pi/alat)
               b(1) = ( -1.000000 -1.000000  1.000000 )  
               b(2) = (  1.000000  1.000000  1.000000 )  
               b(3) = ( -1.000000  1.000000 -1.000000 )  


     PseudoPot. # 1 for Si read from file:
     /fastscratch/tsievers/si_ph_benchmark_images//pseudos/Si.nc.UPF
     MD5 check sum: 9e2d726316af3d4752eea8ab0afbb951
     Pseudo is Norm-conserving + core correction, Zval =  4.0
     Generated using ONCVPSP code by D. R. Hamann
     Using radial grid of 1510 points,  6 beta functions with: 
                l(1) =   0
                l(2) =   0
                l(3) =   1
                l(4) =   1
                l(5) =   2
                l(6) =   2

     atomic species   valence    mass     pseudopotential
        Si             4.00    28.08550     Si( 1.00)

     48 Sym. Ops., with inversion, found



   Cartesian axes

     site n.     atom                  positions (alat units)
         1           Si  tau(   1) = (   0.0000000   0.0000000   0.0000000  )
         2           Si  tau(   2) = (  -0.2500000   0.2500000   0.2500000  )

     number of k points=   126

     Number of k-points >= 100: set verbosity='high' to print them.

     Dense  grid:    20875 G-vectors     FFT dimensions: (  40,  40,  40)

     Estimated max dynamical RAM per process >       6.43 MB

     Estimated total dynamical RAM >     128.62 MB

     The potential is recalculated from file :
     /fastscratch/tsievers/QE_TMP_DIR/_ph1/si_ph_bench_nimages_2_n_procs_40_0.save/charge-density

     Starting wfcs are    8 atomic wfcs

     Band Structure Calculation
     Davidson diagonalization with overlap

     ethr =  1.25E-10,  avg # of iterations = 12.8

     total cpu time spent up to now is       25.4 secs

     End of band structure calculation

     Number of k-points >= 100: set verbosity='high' to print the bands.

     highest occupied level (ev):     6.1106

     Writing config to output data dir /fastscratch/tsievers/QE_TMP_DIR/_ph1/si_ph_bench_nimages_2_n_procs_40_0.save/

     default                                                                    

     bravais-lattice index     =            2
     lattice parameter (alat)  =      10.1899  a.u.
     unit-cell volume          =     264.5151 (a.u.)^3
     number of atoms/cell      =            2
     number of atomic types    =            1
     kinetic-energy cut-off    =      70.0000  Ry
     charge density cut-off    =     280.0000  Ry
     convergence threshold     =      1.0E-15
     beta                      =       0.7000
     number of iterations used =            4
     Exchange-correlation= PW
                           (   1   4   0   0   0   0   0)


     celldm(1)=   10.18990  celldm(2)=    0.00000  celldm(3)=    0.00000
     celldm(4)=    0.00000  celldm(5)=    0.00000  celldm(6)=    0.00000

     crystal axes: (cart. coord. in units of alat)
               a(1) = ( -0.5000  0.0000  0.5000 )  
               a(2) = (  0.0000  0.5000  0.5000 )  
               a(3) = ( -0.5000  0.5000  0.0000 )  

     reciprocal axes: (cart. coord. in units 2 pi/alat)
               b(1) = ( -1.0000 -1.0000  1.0000 )  
               b(2) = (  1.0000  1.0000  1.0000 )  
               b(3) = ( -1.0000  1.0000 -1.0000 )  


     Atoms inside the unit cell: 

     Cartesian axes

     site n.  atom      mass           positions (alat units)
        1     Si  28.0855   tau(    1) = (    0.00000    0.00000    0.00000  )
        2     Si  28.0855   tau(    2) = (   -0.25000    0.25000    0.25000  )

     Computing dynamical matrix for 
                    q = (   0.0000000  -1.0000000   0.0000000 )
 
     17 Sym.Ops. (with q -> -q+G )


     G cutoff =  736.4420  (  10439 G-vectors)     FFT grid: ( 40, 40, 40)
     number of k points=   126

     PseudoPot. # 1 for Si read from file:
     /fastscratch/tsievers/si_ph_benchmark_images//pseudos/Si.nc.UPF
     MD5 check sum: 9e2d726316af3d4752eea8ab0afbb951
     Pseudo is Norm-conserving + core correction, Zval =  4.0
     Generated using ONCVPSP code by D. R. Hamann
     Using radial grid of 1510 points,  6 beta functions with: 
                l(1) =   0
                l(2) =   0
                l(3) =   1
                l(4) =   1
                l(5) =   2
                l(6) =   2


     Atomic displacements:
     There are    3 irreducible representations

     Representation     1      2 modes -  To be done

     Representation     2      2 modes -  To be done

     Representation     3      2 modes -  To be done



     Alpha used in Ewald sum =   2.8000
     PHONON       :   3m48.06s CPU   5m24.00s WALL



     Representation #   1 modes #   1   2

     Self-consistent Calculation

      iter #   1 total cpu time :   324.8 secs   av.it.:   5.3
      thresh= 1.000E-02 alpha_mix =  0.700 |ddv_scf|^2 =  3.545E-09

      iter #   2 total cpu time :   326.5 secs   av.it.:  11.2
      thresh= 5.954E-06 alpha_mix =  0.700 |ddv_scf|^2 =  1.954E-10

      iter #   3 total cpu time :   328.6 secs   av.it.:  11.3
      thresh= 1.398E-06 alpha_mix =  0.700 |ddv_scf|^2 =  1.324E-12

      iter #   4 total cpu time :   331.1 secs   av.it.:  10.9
      thresh= 1.150E-07 alpha_mix =  0.700 |ddv_scf|^2 =  2.007E-14

      iter #   5 total cpu time :   332.1 secs   av.it.:  11.2
      thresh= 1.417E-08 alpha_mix =  0.700 |ddv_scf|^2 =  3.245E-17

     End of self-consistent calculation

     Convergence has been achieved 


     Representation #   2 modes #   3   4

     Self-consistent Calculation

      iter #   1 total cpu time :   334.1 secs   av.it.:   6.5
      thresh= 1.000E-02 alpha_mix =  0.700 |ddv_scf|^2 =  2.282E-06

      iter #   2 total cpu time :   335.7 secs   av.it.:  11.1
      thresh= 1.511E-04 alpha_mix =  0.700 |ddv_scf|^2 =  3.234E-06

      iter #   3 total cpu time :   337.3 secs   av.it.:  10.4
      thresh= 1.798E-04 alpha_mix =  0.700 |ddv_scf|^2 =  5.613E-10

      iter #   4 total cpu time :   339.1 secs   av.it.:  10.9
      thresh= 2.369E-06 alpha_mix =  0.700 |ddv_scf|^2 =  2.472E-11

      iter #   5 total cpu time :   341.1 secs   av.it.:  11.1
      thresh= 4.972E-07 alpha_mix =  0.700 |ddv_scf|^2 =  2.167E-13

      iter #   6 total cpu time :   342.8 secs   av.it.:  11.0
      thresh= 4.655E-08 alpha_mix =  0.700 |ddv_scf|^2 =  5.055E-15

      iter #   7 total cpu time :   343.7 secs   av.it.:  10.9
      thresh= 7.110E-09 alpha_mix =  0.700 |ddv_scf|^2 =  5.047E-17

     End of self-consistent calculation

     Convergence has been achieved 


     Representation #   3 modes #   5   6

     Self-consistent Calculation

      iter #   1 total cpu time :   347.6 secs   av.it.:   6.4
      thresh= 1.000E-02 alpha_mix =  0.700 |ddv_scf|^2 =  4.201E-07

      iter #   2 total cpu time :   349.6 secs   av.it.:  11.4
      thresh= 6.481E-05 alpha_mix =  0.700 |ddv_scf|^2 =  1.163E-07

      iter #   3 total cpu time :   351.5 secs   av.it.:  11.1
      thresh= 3.410E-05 alpha_mix =  0.700 |ddv_scf|^2 =  1.245E-10

      iter #   4 total cpu time :   353.2 secs   av.it.:  11.2
      thresh= 1.116E-06 alpha_mix =  0.700 |ddv_scf|^2 =  1.016E-13

      iter #   5 total cpu time :   355.2 secs   av.it.:  11.1
      thresh= 3.188E-08 alpha_mix =  0.700 |ddv_scf|^2 =  5.397E-15

      iter #   6 total cpu time :   356.1 secs   av.it.:  11.1
      thresh= 7.346E-09 alpha_mix =  0.700 |ddv_scf|^2 =  9.211E-18

     End of self-consistent calculation

     Convergence has been achieved 
 
     Number of q in the star =    3
     List of q in the star:
          1   0.000000000  -1.000000000   0.000000000
          2  -1.000000000   0.000000000   0.000000000
          3   0.000000000   0.000000000  -1.000000000

     Diagonalizing the dynamical matrix

     q = (    0.000000000  -1.000000000   0.000000000 ) 

 **************************************************************************
     freq (    1) =       4.101595 [THz] =     136.814466 [cm-1]
     freq (    2) =       4.101595 [THz] =     136.814466 [cm-1]
     freq (    3) =      12.261821 [THz] =     409.010309 [cm-1]
     freq (    4) =      12.261821 [THz] =     409.010309 [cm-1]
     freq (    5) =      13.855561 [THz] =     462.171781 [cm-1]
     freq (    6) =      13.855561 [THz] =     462.171781 [cm-1]
 **************************************************************************

     Calculation of q =    0.6666667  -0.3333333   1.0000000
 
     Parallelization info
     --------------------
     sticks:   dense  smooth     PW     G-vecs:    dense   smooth      PW
     Min         501     501    180                10436    10436    2238
     Max         502     502    181                10439    10439    2239
     Sum        1003    1003    361                20875    20875    4477
 
     Using Slab Decomposition
 

     Title: 
     default                                                                    


     bravais-lattice index     =            2
     lattice parameter (alat)  =      10.1899  a.u.
     unit-cell volume          =     264.5151 (a.u.)^3
     number of atoms/cell      =            2
     number of atomic types    =            1
     number of electrons       =         8.00
     number of Kohn-Sham states=            4
     kinetic-energy cutoff     =      70.0000  Ry
     charge density cutoff     =     280.0000  Ry
     Exchange-correlation= PW
                           (   1   4   0   0   0   0   0)

     celldm(1)=  10.189905  celldm(2)=   0.000000  celldm(3)=   0.000000
     celldm(4)=   0.000000  celldm(5)=   0.000000  celldm(6)=   0.000000

     crystal axes: (cart. coord. in units of alat)
               a(1) = (  -0.500000   0.000000   0.500000 )  
               a(2) = (   0.000000   0.500000   0.500000 )  
               a(3) = (  -0.500000   0.500000   0.000000 )  

     reciprocal axes: (cart. coord. in units 2 pi/alat)
               b(1) = ( -1.000000 -1.000000  1.000000 )  
               b(2) = (  1.000000  1.000000  1.000000 )  
               b(3) = ( -1.000000  1.000000 -1.000000 )  


     PseudoPot. # 1 for Si read from file:
     /fastscratch/tsievers/si_ph_benchmark_images//pseudos/Si.nc.UPF
     MD5 check sum: 9e2d726316af3d4752eea8ab0afbb951
     Pseudo is Norm-conserving + core correction, Zval =  4.0
     Generated using ONCVPSP code by D. R. Hamann
     Using radial grid of 1510 points,  6 beta functions with: 
                l(1) =   0
                l(2) =   0
                l(3) =   1
                l(4) =   1
                l(5) =   2
                l(6) =   2

     atomic species   valence    mass     pseudopotential
        Si             4.00    28.08550     Si( 1.00)

     48 Sym. Ops., with inversion, found



   Cartesian axes

     site n.     atom                  positions (alat units)
         1           Si  tau(   1) = (   0.0000000   0.0000000   0.0000000  )
         2           Si  tau(   2) = (  -0.2500000   0.2500000   0.2500000  )

     number of k points=   864

     Number of k-points >= 100: set verbosity='high' to print them.

     Dense  grid:    20875 G-vectors     FFT dimensions: (  40,  40,  40)

     Estimated max dynamical RAM per process >       6.44 MB

     Estimated total dynamical RAM >     128.87 MB

     The potential is recalculated from file :
     /fastscratch/tsievers/QE_TMP_DIR/_ph1/si_ph_bench_nimages_2_n_procs_40_0.save/charge-density

     Starting wfcs are    8 atomic wfcs

     Band Structure Calculation
     Davidson diagonalization with overlap

     ethr =  1.25E-10,  avg # of iterations = 12.8

     total cpu time spent up to now is       30.9 secs

     End of band structure calculation

     Number of k-points >= 100: set verbosity='high' to print the bands.

     highest occupied level (ev):     6.1106

     Writing config to output data dir /fastscratch/tsievers/QE_TMP_DIR/_ph1/si_ph_bench_nimages_2_n_procs_40_0.save/

     default                                                                    

     bravais-lattice index     =            2
     lattice parameter (alat)  =      10.1899  a.u.
     unit-cell volume          =     264.5151 (a.u.)^3
     number of atoms/cell      =            2
     number of atomic types    =            1
     kinetic-energy cut-off    =      70.0000  Ry
     charge density cut-off    =     280.0000  Ry
     convergence threshold     =      1.0E-15
     beta                      =       0.7000
     number of iterations used =            4
     Exchange-correlation= PW
                           (   1   4   0   0   0   0   0)


     celldm(1)=   10.18990  celldm(2)=    0.00000  celldm(3)=    0.00000
     celldm(4)=    0.00000  celldm(5)=    0.00000  celldm(6)=    0.00000

     crystal axes: (cart. coord. in units of alat)
               a(1) = ( -0.5000  0.0000  0.5000 )  
               a(2) = (  0.0000  0.5000  0.5000 )  
               a(3) = ( -0.5000  0.5000  0.0000 )  

     reciprocal axes: (cart. coord. in units 2 pi/alat)
               b(1) = ( -1.0000 -1.0000  1.0000 )  
               b(2) = (  1.0000  1.0000  1.0000 )  
               b(3) = ( -1.0000  1.0000 -1.0000 )  


     Atoms inside the unit cell: 

     Cartesian axes

     site n.  atom      mass           positions (alat units)
        1     Si  28.0855   tau(    1) = (    0.00000    0.00000    0.00000  )
        2     Si  28.0855   tau(    2) = (   -0.25000    0.25000    0.25000  )

     Computing dynamical matrix for 
                    q = (   0.6666667  -0.3333333   1.0000000 )
 
      2 Sym.Ops. (no q -> -q+G )


     G cutoff =  736.4420  (  10439 G-vectors)     FFT grid: ( 40, 40, 40)
     number of k points=   864

     PseudoPot. # 1 for Si read from file:
     /fastscratch/tsievers/si_ph_benchmark_images//pseudos/Si.nc.UPF
     MD5 check sum: 9e2d726316af3d4752eea8ab0afbb951
     Pseudo is Norm-conserving + core correction, Zval =  4.0
     Generated using ONCVPSP code by D. R. Hamann
     Using radial grid of 1510 points,  6 beta functions with: 
                l(1) =   0
                l(2) =   0
                l(3) =   1
                l(4) =   1
                l(5) =   2
                l(6) =   2


     Atomic displacements:
     There are    6 irreducible representations

     Representation     1      1 modes -  To be done

     Representation     2      1 modes -  To be done

     Representation     3      1 modes -  To be done

     Representation     4      1 modes -  To be done

     Representation     5      1 modes -  To be done

     Representation     6      1 modes -  To be done



     Alpha used in Ewald sum =   2.8000
     PHONON       :   4m10.20s CPU   6m 4.91s WALL



     Representation #   1 mode #   1

     Self-consistent Calculation

      iter #   1 total cpu time :   366.5 secs   av.it.:   6.1
      thresh= 1.000E-02 alpha_mix =  0.700 |ddv_scf|^2 =  1.830E-06

      iter #   2 total cpu time :   369.0 secs   av.it.:  10.6
      thresh= 1.353E-04 alpha_mix =  0.700 |ddv_scf|^2 =  5.634E-06

      iter #   3 total cpu time :   371.4 secs   av.it.:   9.3
      thresh= 2.374E-04 alpha_mix =  0.700 |ddv_scf|^2 =  1.561E-07

      iter #   4 total cpu time :   373.8 secs   av.it.:   9.8
      thresh= 3.951E-05 alpha_mix =  0.700 |ddv_scf|^2 =  2.972E-10

      iter #   5 total cpu time :   376.2 secs   av.it.:  10.6
      thresh= 1.724E-06 alpha_mix =  0.700 |ddv_scf|^2 =  1.811E-11

      iter #   6 total cpu time :   378.6 secs   av.it.:  10.3
      thresh= 4.255E-07 alpha_mix =  0.700 |ddv_scf|^2 =  9.299E-14

      iter #   7 total cpu time :   381.6 secs   av.it.:  10.5
      thresh= 3.049E-08 alpha_mix =  0.700 |ddv_scf|^2 =  3.987E-15

      iter #   8 total cpu time :   383.8 secs   av.it.:  10.7
      thresh= 6.314E-09 alpha_mix =  0.700 |ddv_scf|^2 =  9.296E-16

     End of self-consistent calculation

     Convergence has been achieved 


     Representation #   2 mode #   2

     Self-consistent Calculation

      iter #   1 total cpu time :   385.8 secs   av.it.:   5.9
      thresh= 1.000E-02 alpha_mix =  0.700 |ddv_scf|^2 =  3.839E-07

      iter #   2 total cpu time :   388.8 secs   av.it.:  10.8
      thresh= 6.196E-05 alpha_mix =  0.700 |ddv_scf|^2 =  2.117E-07

      iter #   3 total cpu time :   391.4 secs   av.it.:  10.2
      thresh= 4.601E-05 alpha_mix =  0.700 |ddv_scf|^2 =  2.061E-09

      iter #   4 total cpu time :   393.8 secs   av.it.:  10.5
      thresh= 4.540E-06 alpha_mix =  0.700 |ddv_scf|^2 =  1.331E-10

      iter #   5 total cpu time :   396.5 secs   av.it.:  10.5
      thresh= 1.154E-06 alpha_mix =  0.700 |ddv_scf|^2 =  1.232E-12

      iter #   6 total cpu time :   399.3 secs   av.it.:  10.6
      thresh= 1.110E-07 alpha_mix =  0.700 |ddv_scf|^2 =  2.679E-14

      iter #   7 total cpu time :   403.2 secs   av.it.:  10.7
      thresh= 1.637E-08 alpha_mix =  0.700 |ddv_scf|^2 =  1.105E-15

      iter #   8 total cpu time :   405.3 secs   av.it.:  10.7
      thresh= 3.324E-09 alpha_mix =  0.700 |ddv_scf|^2 =  3.356E-17

     End of self-consistent calculation

     Convergence has been achieved 


     Representation #   3 mode #   3

     Self-consistent Calculation

      iter #   1 total cpu time :   407.8 secs   av.it.:   6.3
      thresh= 1.000E-02 alpha_mix =  0.700 |ddv_scf|^2 =  2.504E-06

      iter #   2 total cpu time :   410.2 secs   av.it.:  10.7
      thresh= 1.582E-04 alpha_mix =  0.700 |ddv_scf|^2 =  1.676E-06

      iter #   3 total cpu time :   413.1 secs   av.it.:  10.1
      thresh= 1.295E-04 alpha_mix =  0.700 |ddv_scf|^2 =  3.983E-09

      iter #   4 total cpu time :   415.5 secs   av.it.:  10.5
      thresh= 6.311E-06 alpha_mix =  0.700 |ddv_scf|^2 =  1.743E-10

      iter #   5 total cpu time :   418.2 secs   av.it.:  10.5
      thresh= 1.320E-06 alpha_mix =  0.700 |ddv_scf|^2 =  2.510E-12

      iter #   6 total cpu time :   421.4 secs   av.it.:  10.7
      thresh= 1.584E-07 alpha_mix =  0.700 |ddv_scf|^2 =  2.868E-14

      iter #   7 total cpu time :   426.4 secs   av.it.:  10.5
      thresh= 1.693E-08 alpha_mix =  0.700 |ddv_scf|^2 =  1.501E-15

      iter #   8 total cpu time :   428.5 secs   av.it.:  10.6
      thresh= 3.874E-09 alpha_mix =  0.700 |ddv_scf|^2 =  1.343E-17

     End of self-consistent calculation

     Convergence has been achieved 


     Representation #   4 mode #   4

     Self-consistent Calculation

      iter #   1 total cpu time :   431.3 secs   av.it.:   6.8
      thresh= 1.000E-02 alpha_mix =  0.700 |ddv_scf|^2 =  6.054E-05

      iter #   2 total cpu time :   433.7 secs   av.it.:  10.2
      thresh= 7.781E-04 alpha_mix =  0.700 |ddv_scf|^2 =  2.929E-04

      iter #   3 total cpu time :   436.4 secs   av.it.:   9.0
      thresh= 1.711E-03 alpha_mix =  0.700 |ddv_scf|^2 =  5.313E-08

      iter #   4 total cpu time :   438.7 secs   av.it.:  10.2
      thresh= 2.305E-05 alpha_mix =  0.700 |ddv_scf|^2 =  1.293E-09

      iter #   5 total cpu time :   441.8 secs   av.it.:  10.1
      thresh= 3.596E-06 alpha_mix =  0.700 |ddv_scf|^2 =  1.174E-11

      iter #   6 total cpu time :   444.4 secs   av.it.:  10.3
      thresh= 3.427E-07 alpha_mix =  0.700 |ddv_scf|^2 =  2.768E-13

      iter #   7 total cpu time :   446.7 secs   av.it.:   9.7
      thresh= 5.261E-08 alpha_mix =  0.700 |ddv_scf|^2 =  3.233E-15

      iter #   8 total cpu time :   449.6 secs   av.it.:  10.1
      thresh= 5.686E-09 alpha_mix =  0.700 |ddv_scf|^2 =  1.302E-15

      iter #   9 total cpu time :   451.6 secs   av.it.:   9.6
      thresh= 3.608E-09 alpha_mix =  0.700 |ddv_scf|^2 =  3.331E-16

     End of self-consistent calculation

     Convergence has been achieved 


     Representation #   5 mode #   5

     Self-consistent Calculation

      iter #   1 total cpu time :   454.3 secs   av.it.:   6.1
      thresh= 1.000E-02 alpha_mix =  0.700 |ddv_scf|^2 =  1.110E-06

      iter #   2 total cpu time :   456.7 secs   av.it.:  10.6
      thresh= 1.054E-04 alpha_mix =  0.700 |ddv_scf|^2 =  1.021E-06

      iter #   3 total cpu time :   459.0 secs   av.it.:   9.8
      thresh= 1.011E-04 alpha_mix =  0.700 |ddv_scf|^2 =  2.773E-07

      iter #   4 total cpu time :   461.2 secs   av.it.:   9.2
      thresh= 5.265E-05 alpha_mix =  0.700 |ddv_scf|^2 =  4.274E-10

      iter #   5 total cpu time :   464.5 secs   av.it.:  10.5
      thresh= 2.067E-06 alpha_mix =  0.700 |ddv_scf|^2 =  2.707E-11

      iter #   6 total cpu time :   468.5 secs   av.it.:  10.2
      thresh= 5.203E-07 alpha_mix =  0.700 |ddv_scf|^2 =  7.258E-14

      iter #   7 total cpu time :   471.5 secs   av.it.:  10.6
      thresh= 2.694E-08 alpha_mix =  0.700 |ddv_scf|^2 =  2.185E-14

      iter #   8 total cpu time :   474.5 secs   av.it.:  10.1
      thresh= 1.478E-08 alpha_mix =  0.700 |ddv_scf|^2 =  4.007E-14

      iter #   9 total cpu time :   476.5 secs   av.it.:   9.4
      thresh= 2.002E-08 alpha_mix =  0.700 |ddv_scf|^2 =  1.159E-16

     End of self-consistent calculation

     Convergence has been achieved 


     Representation #   6 mode #   6

     Self-consistent Calculation

      iter #   1 total cpu time :   478.7 secs   av.it.:   6.2
      thresh= 1.000E-02 alpha_mix =  0.700 |ddv_scf|^2 =  9.555E-07

      iter #   2 total cpu time :   481.2 secs   av.it.:  10.8
      thresh= 9.775E-05 alpha_mix =  0.700 |ddv_scf|^2 =  3.262E-07

      iter #   3 total cpu time :   483.8 secs   av.it.:  10.4
      thresh= 5.712E-05 alpha_mix =  0.700 |ddv_scf|^2 =  7.154E-09

      iter #   4 total cpu time :   487.6 secs   av.it.:  10.3
      thresh= 8.458E-06 alpha_mix =  0.700 |ddv_scf|^2 =  1.852E-10

      iter #   5 total cpu time :   490.0 secs   av.it.:  10.6
      thresh= 1.361E-06 alpha_mix =  0.700 |ddv_scf|^2 =  1.924E-12

      iter #   6 total cpu time :   492.5 secs   av.it.:  10.6
      thresh= 1.387E-07 alpha_mix =  0.700 |ddv_scf|^2 =  1.791E-14

      iter #   7 total cpu time :   494.9 secs   av.it.:  10.7
      thresh= 1.338E-08 alpha_mix =  0.700 |ddv_scf|^2 =  8.313E-16

     End of self-consistent calculation

     Convergence has been achieved 
 
     Number of q in the star =   24
     List of q in the star:
          1   0.666666667  -0.333333333   1.000000000
          2   1.000000000   0.333333333   0.666666667
          3   0.666666667   0.333333333   1.000000000
          4  -0.666666667  -0.333333333  -1.000000000
          5  -1.000000000  -0.333333333  -0.666666667
          6   1.000000000  -0.333333333   0.666666667
          7  -0.666666667   0.333333333  -1.000000000
          8   1.000000000   0.333333333  -0.666666667
          9  -0.333333333   1.000000000   0.666666667
         10   0.333333333   1.000000000  -0.666666667
         11  -0.333333333  -1.000000000  -0.666666667
         12  -0.333333333   0.666666667  -1.000000000
         13   1.000000000   0.666666667  -0.333333333
         14   1.000000000  -0.666666667   0.333333333
         15  -1.000000000  -0.666666667  -0.333333333
         16  -1.000000000   0.666666667   0.333333333
         17   0.333333333  -0.666666667   1.000000000
         18   0.333333333  -1.000000000   0.666666667
         19   0.333333333   0.666666667   1.000000000
         20  -0.333333333  -0.666666667  -1.000000000
         21   0.666666667  -1.000000000   0.333333333
         22  -0.666666667  -1.000000000   0.333333333
         23   0.666666667   1.000000000  -0.333333333
         24  -0.666666667  -1.000000000  -0.333333333

[...]

      iter #   4 total cpu time :   595.0 secs   av.it.:  10.1
      thresh= 2.795E-05 alpha_mix =  0.700 |ddv_scf|^2 =  3.930E-10

      iter #   5 total cpu time :   597.7 secs   av.it.:  10.5
      thresh= 1.982E-06 alpha_mix =  0.700 |ddv_scf|^2 =  9.972E-12

      iter #   6 total cpu time :   600.2 secs   av.it.:  10.6
      thresh= 3.158E-07 alpha_mix =  0.700 |ddv_scf|^2 =  5.880E-14

      iter #   7 total cpu time :   602.6 secs   av.it.:  10.5
      thresh= 2.425E-08 alpha_mix =  0.700 |ddv_scf|^2 =  7.233E-15

      iter #   8 total cpu time :   606.3 secs   av.it.:  10.5
      thresh= 8.505E-09 alpha_mix =  0.700 |ddv_scf|^2 =  2.413E-15

      iter #   9 total cpu time :   608.3 secs   av.it.:  10.0
      thresh= 4.912E-09 alpha_mix =  0.700 |ddv_scf|^2 =  3.489E-16

     End of self-consistent calculation

     Convergence has been achieved 


     Representation #   6 mode #   6

     Self-consistent Calculation

      iter #   1 total cpu time :   611.6 secs   av.it.:   6.3
      thresh= 1.000E-02 alpha_mix =  0.700 |ddv_scf|^2 =  2.529E-06

      iter #   2 total cpu time :   614.0 secs   av.it.:  10.7
      thresh= 1.590E-04 alpha_mix =  0.700 |ddv_scf|^2 =  2.774E-06

      iter #   3 total cpu time :   617.1 secs   av.it.:   9.8
      thresh= 1.665E-04 alpha_mix =  0.700 |ddv_scf|^2 =  6.792E-08

      iter #   4 total cpu time :   619.4 secs   av.it.:  10.0
      thresh= 2.606E-05 alpha_mix =  0.700 |ddv_scf|^2 =  2.216E-10

      iter #   5 total cpu time :   622.2 secs   av.it.:  10.4
      thresh= 1.489E-06 alpha_mix =  0.700 |ddv_scf|^2 =  4.176E-12

      iter #   6 total cpu time :   624.7 secs   av.it.:  10.5
      thresh= 2.044E-07 alpha_mix =  0.700 |ddv_scf|^2 =  1.954E-14

      iter #   7 total cpu time :   627.1 secs   av.it.:  10.5
      thresh= 1.398E-08 alpha_mix =  0.700 |ddv_scf|^2 =  1.132E-15

      iter #   8 total cpu time :   629.5 secs   av.it.:  10.7
      thresh= 3.365E-09 alpha_mix =  0.700 |ddv_scf|^2 =  6.169E-17

     End of self-consistent calculation

     Convergence has been achieved 
 
     Number of q in the star =   24
     List of q in the star:
          1   0.500000000  -0.166666667   0.833333333
          2   0.833333333   0.166666667   0.500000000
          3   0.500000000   0.166666667   0.833333333
          4  -0.500000000  -0.166666667  -0.833333333
          5  -0.500000000  -0.166666667   0.833333333
          6  -0.833333333  -0.166666667  -0.500000000
          7   0.833333333  -0.166666667   0.500000000
          8  -0.500000000   0.166666667  -0.833333333
          9  -0.500000000   0.166666667   0.833333333
         10   0.833333333  -0.166666667  -0.500000000
         11  -0.833333333  -0.166666667   0.500000000
         12   0.500000000   0.166666667  -0.833333333
         13  -0.833333333   0.166666667   0.500000000
         14   0.833333333   0.166666667  -0.500000000
         15  -0.833333333   0.166666667  -0.500000000
         16  -0.166666667   0.500000000  -0.833333333
         17   0.833333333   0.500000000  -0.166666667
         18  -0.833333333  -0.500000000  -0.166666667
         19  -0.833333333   0.500000000   0.166666667
         20   0.166666667  -0.500000000   0.833333333
         21  -0.166666667   0.500000000   0.833333333
         22   0.166666667   0.500000000  -0.833333333
         23  -0.166666667  -0.500000000  -0.833333333
         24  -0.500000000   0.833333333   0.166666667

     Diagonalizing the dynamical matrix

     q = (    0.500000000  -0.166666667   0.833333333 ) 

 **************************************************************************
     freq (    1) =       5.052024 [THz] =     168.517371 [cm-1]
     freq (    2) =       6.066634 [THz] =     202.361112 [cm-1]
     freq (    3) =       9.812899 [THz] =     327.323086 [cm-1]
     freq (    4) =      11.453268 [THz] =     382.039906 [cm-1]
     freq (    5) =      14.041875 [THz] =     468.386527 [cm-1]
     freq (    6) =      14.270917 [THz] =     476.026546 [cm-1]
 **************************************************************************

     Calculation of q =   -0.3333333  -1.0000000   0.0000000
 
     Parallelization info
     --------------------
     sticks:   dense  smooth     PW     G-vecs:    dense   smooth      PW
     Min         501     501    174                10436    10436    2139
     Max         502     502    175                10439    10439    2140
     Sum        1003    1003    349                20875    20875    4279
 
     Using Slab Decomposition
 

     Title: 
     default                                                                    


     bravais-lattice index     =            2
     lattice parameter (alat)  =      10.1899  a.u.
     unit-cell volume          =     264.5151 (a.u.)^3
     number of atoms/cell      =            2
     number of atomic types    =            1
     number of electrons       =         8.00
     number of Kohn-Sham states=            4
     kinetic-energy cutoff     =      70.0000  Ry
     charge density cutoff     =     280.0000  Ry
     Exchange-correlation= PW
                           (   1   4   0   0   0   0   0)

     celldm(1)=  10.189905  celldm(2)=   0.000000  celldm(3)=   0.000000
     celldm(4)=   0.000000  celldm(5)=   0.000000  celldm(6)=   0.000000

     crystal axes: (cart. coord. in units of alat)
               a(1) = (  -0.500000   0.000000   0.500000 )  
               a(2) = (   0.000000   0.500000   0.500000 )  
               a(3) = (  -0.500000   0.500000   0.000000 )  

     reciprocal axes: (cart. coord. in units 2 pi/alat)
               b(1) = ( -1.000000 -1.000000  1.000000 )  
               b(2) = (  1.000000  1.000000  1.000000 )  
               b(3) = ( -1.000000  1.000000 -1.000000 )  


     PseudoPot. # 1 for Si read from file:
     /fastscratch/tsievers/si_ph_benchmark_images//pseudos/Si.nc.UPF
     MD5 check sum: 9e2d726316af3d4752eea8ab0afbb951
     Pseudo is Norm-conserving + core correction, Zval =  4.0
     Generated using ONCVPSP code by D. R. Hamann
     Using radial grid of 1510 points,  6 beta functions with: 
                l(1) =   0
                l(2) =   0
                l(3) =   1
                l(4) =   1
                l(5) =   2
                l(6) =   2

     atomic species   valence    mass     pseudopotential
        Si             4.00    28.08550     Si( 1.00)

     48 Sym. Ops., with inversion, found



   Cartesian axes

     site n.     atom                  positions (alat units)
         1           Si  tau(   1) = (   0.0000000   0.0000000   0.0000000  )
         2           Si  tau(   2) = (  -0.2500000   0.2500000   0.2500000  )

     number of k points=   432

     Number of k-points >= 100: set verbosity='high' to print them.

     Dense  grid:    20875 G-vectors     FFT dimensions: (  40,  40,  40)

     Estimated max dynamical RAM per process >       6.43 MB

     Estimated total dynamical RAM >     128.68 MB

     The potential is recalculated from file :
     /fastscratch/tsievers/QE_TMP_DIR/_ph1/si_ph_bench_nimages_2_n_procs_40_0.save/charge-density

     Starting wfcs are    8 atomic wfcs

     Band Structure Calculation
     Davidson diagonalization with overlap

     ethr =  1.25E-10,  avg # of iterations = 12.8

     total cpu time spent up to now is       41.1 secs

     End of band structure calculation

     Number of k-points >= 100: set verbosity='high' to print the bands.

     highest occupied level (ev):     6.1106

     Writing config to output data dir /fastscratch/tsievers/QE_TMP_DIR/_ph1/si_ph_bench_nimages_2_n_procs_40_0.save/

     default                                                                    

     bravais-lattice index     =            2
     lattice parameter (alat)  =      10.1899  a.u.
     unit-cell volume          =     264.5151 (a.u.)^3
     number of atoms/cell      =            2
     number of atomic types    =            1
     kinetic-energy cut-off    =      70.0000  Ry
     charge density cut-off    =     280.0000  Ry
     convergence threshold     =      1.0E-15
     beta                      =       0.7000
     number of iterations used =            4
     Exchange-correlation= PW
                           (   1   4   0   0   0   0   0)


     celldm(1)=   10.18990  celldm(2)=    0.00000  celldm(3)=    0.00000
     celldm(4)=    0.00000  celldm(5)=    0.00000  celldm(6)=    0.00000

     crystal axes: (cart. coord. in units of alat)
               a(1) = ( -0.5000  0.0000  0.5000 )  
               a(2) = (  0.0000  0.5000  0.5000 )  
               a(3) = ( -0.5000  0.5000  0.0000 )  

     reciprocal axes: (cart. coord. in units 2 pi/alat)
               b(1) = ( -1.0000 -1.0000  1.0000 )  
               b(2) = (  1.0000  1.0000  1.0000 )  
               b(3) = ( -1.0000  1.0000 -1.0000 )  


     Atoms inside the unit cell: 

     Cartesian axes

     site n.  atom      mass           positions (alat units)
        1     Si  28.0855   tau(    1) = (    0.00000    0.00000    0.00000  )
        2     Si  28.0855   tau(    2) = (   -0.25000    0.25000    0.25000  )

     Computing dynamical matrix for 
                    q = (  -0.3333333  -1.0000000   0.0000000 )
 
      4 Sym.Ops. (no q -> -q+G )


     G cutoff =  736.4420  (  10439 G-vectors)     FFT grid: ( 40, 40, 40)
     number of k points=   432

     PseudoPot. # 1 for Si read from file:
     /fastscratch/tsievers/si_ph_benchmark_images//pseudos/Si.nc.UPF
     MD5 check sum: 9e2d726316af3d4752eea8ab0afbb951
     Pseudo is Norm-conserving + core correction, Zval =  4.0
     Generated using ONCVPSP code by D. R. Hamann
     Using radial grid of 1510 points,  6 beta functions with: 
                l(1) =   0
                l(2) =   0
                l(3) =   1
                l(4) =   1
                l(5) =   2
                l(6) =   2


     Atomic displacements:
     There are    3 irreducible representations

     Representation     1      2 modes -  To be done

     Representation     2      2 modes -  To be done

     Representation     3      2 modes -  To be done



     Alpha used in Ewald sum =   2.8000
     PHONON       :   7m41.69s CPU  10m35.00s WALL



     Representation #   1 modes #   1   2

     Self-consistent Calculation

      iter #   1 total cpu time :   636.8 secs   av.it.:   6.2
      thresh= 1.000E-02 alpha_mix =  0.700 |ddv_scf|^2 =  5.042E-07

      iter #   2 total cpu time :   639.8 secs   av.it.:  11.4
      thresh= 7.101E-05 alpha_mix =  0.700 |ddv_scf|^2 =  5.622E-07

      iter #   3 total cpu time :   643.2 secs   av.it.:  10.8
      thresh= 7.498E-05 alpha_mix =  0.700 |ddv_scf|^2 =  4.579E-09

      iter #   4 total cpu time :   646.6 secs   av.it.:  11.0
      thresh= 6.767E-06 alpha_mix =  0.700 |ddv_scf|^2 =  9.289E-11

      iter #   5 total cpu time :   651.0 secs   av.it.:  11.1
      thresh= 9.638E-07 alpha_mix =  0.700 |ddv_scf|^2 =  1.074E-12

      iter #   6 total cpu time :   655.3 secs   av.it.:  11.3
      thresh= 1.036E-07 alpha_mix =  0.700 |ddv_scf|^2 =  2.150E-14

      iter #   7 total cpu time :   658.9 secs   av.it.:  11.2
      thresh= 1.466E-08 alpha_mix =  0.700 |ddv_scf|^2 =  1.127E-15

      iter #   8 total cpu time :   661.6 secs   av.it.:  11.2
      thresh= 3.357E-09 alpha_mix =  0.700 |ddv_scf|^2 =  3.951E-17

     End of self-consistent calculation

     Convergence has been achieved 


     Representation #   2 modes #   3   4

     Self-consistent Calculation

      iter #   1 total cpu time :   664.2 secs   av.it.:   6.4
      thresh= 1.000E-02 alpha_mix =  0.700 |ddv_scf|^2 =  9.142E-07

      iter #   2 total cpu time :   668.4 secs   av.it.:  11.4
      thresh= 9.561E-05 alpha_mix =  0.700 |ddv_scf|^2 =  1.025E-06

      iter #   3 total cpu time :   671.6 secs   av.it.:  10.8
      thresh= 1.012E-04 alpha_mix =  0.700 |ddv_scf|^2 =  8.860E-09

      iter #   4 total cpu time :   674.9 secs   av.it.:  10.9
      thresh= 9.413E-06 alpha_mix =  0.700 |ddv_scf|^2 =  9.243E-11

      iter #   5 total cpu time :   678.0 secs   av.it.:  11.2
      thresh= 9.614E-07 alpha_mix =  0.700 |ddv_scf|^2 =  2.107E-12

      iter #   6 total cpu time :   681.0 secs   av.it.:  11.3
      thresh= 1.452E-07 alpha_mix =  0.700 |ddv_scf|^2 =  1.672E-14

      iter #   7 total cpu time :   684.0 secs   av.it.:  11.2
      thresh= 1.293E-08 alpha_mix =  0.700 |ddv_scf|^2 =  1.062E-15

      iter #   8 total cpu time :   686.3 secs   av.it.:  11.3
      thresh= 3.259E-09 alpha_mix =  0.700 |ddv_scf|^2 =  3.768E-17

     End of self-consistent calculation

     Convergence has been achieved 


     Representation #   3 modes #   5   6

     Self-consistent Calculation

      iter #   1 total cpu time :   689.3 secs   av.it.:   6.5
      thresh= 1.000E-02 alpha_mix =  0.700 |ddv_scf|^2 =  1.211E-06

      iter #   2 total cpu time :   692.3 secs   av.it.:  11.3
      thresh= 1.100E-04 alpha_mix =  0.700 |ddv_scf|^2 =  1.329E-06

      iter #   3 total cpu time :   695.2 secs   av.it.:  10.7
      thresh= 1.153E-04 alpha_mix =  0.700 |ddv_scf|^2 =  1.073E-08

      iter #   4 total cpu time :   698.7 secs   av.it.:  10.8
      thresh= 1.036E-05 alpha_mix =  0.700 |ddv_scf|^2 =  7.279E-11

      iter #   5 total cpu time :   703.0 secs   av.it.:  11.1
      thresh= 8.532E-07 alpha_mix =  0.700 |ddv_scf|^2 =  6.912E-13

      iter #   6 total cpu time :   706.1 secs   av.it.:  11.2
      thresh= 8.314E-08 alpha_mix =  0.700 |ddv_scf|^2 =  1.217E-14

      iter #   7 total cpu time :   708.4 secs   av.it.:  11.1
      thresh= 1.103E-08 alpha_mix =  0.700 |ddv_scf|^2 =  7.296E-16

     End of self-consistent calculation

     Convergence has been achieved 
 
     Number of q in the star =   12
     List of q in the star:
          1  -0.333333333  -1.000000000   0.000000000
          2   0.333333333  -1.000000000   0.000000000
          3   0.000000000  -1.000000000   0.333333333
          4   0.000000000  -1.000000000  -0.333333333
          5  -1.000000000   0.000000000  -0.333333333
          6   1.000000000   0.000000000   0.333333333
          7  -1.000000000  -0.333333333   0.000000000
          8   0.000000000  -0.333333333  -1.000000000
          9   0.000000000   0.333333333   1.000000000
         10   1.000000000   0.333333333   0.000000000
         11  -0.333333333   0.000000000   1.000000000
         12   0.333333333   0.000000000   1.000000000

     Diagonalizing the dynamical matrix

     q = (   -0.333333333  -1.000000000   0.000000000 ) 

 **************************************************************************
     freq (    1) =       5.494582 [THz] =     183.279530 [cm-1]
     freq (    2) =       5.494582 [THz] =     183.279530 [cm-1]
     freq (    3) =      10.966352 [THz] =     365.798121 [cm-1]
     freq (    4) =      10.966352 [THz] =     365.798121 [cm-1]
     freq (    5) =      14.002149 [THz] =     467.061401 [cm-1]
     freq (    6) =      14.002149 [THz] =     467.061401 [cm-1]
 **************************************************************************
 
     init_run     :      0.72s CPU      0.78s WALL (       8 calls)
     electrons    :     31.09s CPU     33.97s WALL (       8 calls)

     Called by init_run:
     wfcinit      :      0.00s CPU      0.05s WALL (       8 calls)
     potinit      :      0.04s CPU      0.04s WALL (       8 calls)
     hinit0       :      0.19s CPU      0.19s WALL (       8 calls)

     Called by electrons:
     c_bands      :     31.09s CPU     33.97s WALL (       8 calls)
     v_of_rho     :      0.03s CPU      0.03s WALL (       9 calls)

     Called by c_bands:
     init_us_2    :      5.50s CPU      5.73s WALL (   12299 calls)
     init_us_2:cp :      5.46s CPU      5.70s WALL (   12299 calls)
     cegterg      :     18.89s CPU     19.14s WALL (     450 calls)

     Called by *egterg:
     cdiaghg      :      0.48s CPU      0.50s WALL (    6302 calls)
     h_psi        :    322.68s CPU    328.41s WALL (  124797 calls)
     g_psi        :      0.19s CPU      0.19s WALL (    5852 calls)

     Called by h_psi:
     h_psi:calbec :     22.96s CPU     23.35s WALL (  124797 calls)
     vloc_psi     :    277.02s CPU    281.99s WALL (  124797 calls)
     add_vuspsi   :     20.63s CPU     21.07s WALL (  124797 calls)

     General routines
     calbec       :     40.80s CPU     41.69s WALL (  249964 calls)
     fft          :      0.74s CPU      0.76s WALL (    1670 calls)
     ffts         :      0.81s CPU      0.84s WALL (    1470 calls)
     fftw         :    283.61s CPU    289.44s WALL ( 1054706 calls)
     davcio       :      2.22s CPU     17.02s WALL (   53644 calls)
 
     Parallel routines
 
     PHONON       :   8m30.64s CPU  11m50.64s WALL

     INITIALIZATION: 
     phq_setup    :      0.05s CPU      0.27s WALL (       8 calls)
     phq_init     :      3.61s CPU      5.56s WALL (       8 calls)
 
     phq_init     :      3.61s CPU      5.56s WALL (       8 calls)
     set_drhoc    :      2.07s CPU      2.08s WALL (      22 calls)
     init_vloc    :      0.02s CPU      0.02s WALL (       9 calls)
     init_us_1    :      0.07s CPU      0.07s WALL (       9 calls)
     init_us_2    :      5.50s CPU      5.73s WALL (   12299 calls)
 
     DYNAMICAL MATRIX:
     dynmat0      :      1.85s CPU      3.78s WALL (       7 calls)
     phqscf       :    473.15s CPU    654.97s WALL (       8 calls)
     dynmatrix    :     27.51s CPU     48.14s WALL (       7 calls)
 
     phqscf       :    473.15s CPU    654.97s WALL (       8 calls)
     solve_linter :    471.53s CPU    642.80s WALL (      36 calls)
     drhodv       :      1.57s CPU      1.63s WALL (      36 calls)
 
     dynmat0      :      1.85s CPU      3.78s WALL (       7 calls)
     dynmat_us    :      0.44s CPU      0.45s WALL (       7 calls)
     d2ionq       :      0.02s CPU      0.02s WALL (       7 calls)
     dynmatcc     :      1.35s CPU      1.35s WALL (       7 calls)
 
     dynmat_us    :      0.44s CPU      0.45s WALL (       7 calls)
 
     phqscf       :    473.15s CPU    654.97s WALL (       8 calls)
     solve_linter :    471.53s CPU    642.80s WALL (      36 calls)
 
     solve_linter :    471.53s CPU    642.80s WALL (      36 calls)
     dvqpsi_us    :      5.35s CPU      5.53s WALL (    1254 calls)
     sth_kernel   :    407.13s CPU    425.35s WALL (     275 calls)
     apply_dpot_b :     22.40s CPU     23.29s WALL (    8675 calls)
     ortho        :      0.88s CPU      0.92s WALL (    9929 calls)
     cgsolve      :    344.24s CPU    350.48s WALL (    9929 calls)
     incdrhoscf   :     27.09s CPU     27.90s WALL (    9929 calls)
     dv_of_drho   :      0.64s CPU      0.65s WALL (     328 calls)
     mix_pot      :      2.09s CPU    106.61s WALL (     275 calls)
     psymdvscf    :      3.29s CPU      3.36s WALL (     275 calls)
 
     dvqpsi_us    :      5.35s CPU      5.53s WALL (    1254 calls)
     dvqpsi_us_on :      1.20s CPU      1.23s WALL (    1254 calls)
 
     cgsolve      :    344.24s CPU    350.48s WALL (    9929 calls)
     ch_psi       :    334.99s CPU    340.95s WALL (  118045 calls)
 
     ch_psi       :    334.99s CPU    340.95s WALL (  118045 calls)
     h_psi        :    322.68s CPU    328.41s WALL (  124797 calls)
     last         :     27.81s CPU     28.31s WALL (  118045 calls)
 
     h_psi        :    322.68s CPU    328.41s WALL (  124797 calls)
     add_vuspsi   :     20.63s CPU     21.07s WALL (  124797 calls)
 
     incdrhoscf   :     27.09s CPU     27.90s WALL (    9929 calls)
 
 
      General routines
     calbec       :     40.80s CPU     41.69s WALL (  249964 calls)
     fft          :      0.74s CPU      0.76s WALL (    1670 calls)
     ffts         :      0.81s CPU      0.84s WALL (    1470 calls)
     fftw         :    283.61s CPU    289.44s WALL ( 1054706 calls)
     davcio       :      2.22s CPU     17.02s WALL (   53644 calls)
     write_rec    :      0.30s CPU     57.54s WALL (     311 calls)
 
     PHONON       :   8m30.64s CPU  11m50.64s WALL

