Module for intel-oneAPI 2021.4 loaded.
 
:: initializing oneAPI environment ...
   2715823: BASH_VERSION = 4.4.20(1)-release
:: advisor -- latest
:: ccl -- latest
:: clck -- latest
:: compiler -- latest
:: dal -- latest
:: debugger -- latest
:: dev-utilities -- latest
:: dnnl -- latest
:: dpcpp-ct -- latest
:: dpl -- latest
:: inspector -- latest
:: intelpython -- latest
:: ipp -- latest
:: ippcp -- latest
:: ipp -- latest
:: itac -- latest
:: LPOT -- latest
:: mkl -- latest
:: modelzoo -- latest
:: mpi -- latest
:: pytorch -- latest
:: tbb -- latest
:: tensorflow -- latest
:: vpl -- latest
:: vtune -- latest
:: oneAPI environment initialized ::
 

     Program PWSCF v.7.0 starts on 18May2022 at  8:17:52 

     This program is part of the open-source Quantum ESPRESSO suite
     for quantum simulation of materials; please cite
         "P. Giannozzi et al., J. Phys.:Condens. Matter 21 395502 (2009);
         "P. Giannozzi et al., J. Phys.:Condens. Matter 29 465901 (2017);
         "P. Giannozzi et al., J. Chem. Phys. 152 154105 (2020);
          URL http://www.quantum-espresso.org", 
     in publications or presentations arising from this work. More details at
     http://www.quantum-espresso.org/quote

     Parallel version (MPI), running on   160 processors

     MPI processes distributed on     8 nodes
     K-points division:     npool     =      20
     R & G space division:  proc/nbgrp/npool/nimage =       8
     22565 MiB available memory on the printing compute node when the environment starts
 
     Reading input from in_files/si_ph_bench_poolsize_8_n_procs_160_0.scf

     Current dimensions of program PWSCF are:
     Max number of different atomic species (ntypx) = 10
     Max number of k-points (npk) =  40000
     Max angular momentum in pseudopotentials (lmaxx) =  4

     Subspace diagonalization in iterative solution of the eigenvalue problem:
     one sub-group per band group will be used
     scalapack distributed-memory algorithm (size of sub-group:  2*  2 procs)

 
     Parallelization info
     --------------------
     sticks:   dense  smooth     PW     G-vecs:    dense   smooth      PW
     Min         125     125     37                 2608     2608     433
     Max         126     126     38                 2611     2611     436
     Sum        1003    1003    301                20875    20875    3479
 
     Using Slab Decomposition
 


     bravais-lattice index     =            2
     lattice parameter (alat)  =      10.1899  a.u.
     unit-cell volume          =     264.5151 (a.u.)^3
     number of atoms/cell      =            2
     number of atomic types    =            1
     number of electrons       =         8.00
     number of Kohn-Sham states=            4
     kinetic-energy cutoff     =      70.0000  Ry
     charge density cutoff     =     280.0000  Ry
     scf convergence threshold =      1.0E-10
     mixing beta               =       0.7000
     number of iterations used =            8  plain     mixing
     Exchange-correlation= SLA  PW   NOGX NOGC
                           (   1   4   0   0   0   0   0)

     celldm(1)=  10.189905  celldm(2)=   0.000000  celldm(3)=   0.000000
     celldm(4)=   0.000000  celldm(5)=   0.000000  celldm(6)=   0.000000

     crystal axes: (cart. coord. in units of alat)
               a(1) = (  -0.500000   0.000000   0.500000 )  
               a(2) = (   0.000000   0.500000   0.500000 )  
               a(3) = (  -0.500000   0.500000   0.000000 )  

     reciprocal axes: (cart. coord. in units 2 pi/alat)
               b(1) = ( -1.000000 -1.000000  1.000000 )  
               b(2) = (  1.000000  1.000000  1.000000 )  
               b(3) = ( -1.000000  1.000000 -1.000000 )  


     PseudoPot. # 1 for Si read from file:
     ./pseudos/Si.nc.UPF
     MD5 check sum: 9e2d726316af3d4752eea8ab0afbb951
     Pseudo is Norm-conserving + core correction, Zval =  4.0
     Generated using ONCVPSP code by D. R. Hamann
     Using radial grid of 1510 points,  6 beta functions with: 
                l(1) =   0
                l(2) =   0
                l(3) =   1
                l(4) =   1
                l(5) =   2
                l(6) =   2

     atomic species   valence    mass     pseudopotential
        Si             4.00    28.08550     Si( 1.00)

     48 Sym. Ops., with inversion, found (24 have fractional translation)



   Cartesian axes

     site n.     atom                  positions (alat units)
         1           Si  tau(   1) = (   0.0000000   0.0000000   0.0000000  )
         2           Si  tau(   2) = (  -0.2500000   0.2500000   0.2500000  )

     number of k points=    28
                       cart. coord. in units 2pi/alat
        k(    1) = (  -0.0833333   0.0833333   0.0833333), wk =   0.0185185
        k(    2) = (  -0.2500000   0.2500000  -0.0833333), wk =   0.0555556
        k(    3) = (  -0.4166667   0.4166667  -0.2500000), wk =   0.0555556
        k(    4) = (   0.4166667  -0.4166667   0.5833333), wk =   0.0555556
        k(    5) = (   0.2500000  -0.2500000   0.4166667), wk =   0.0555556
        k(    6) = (   0.0833333  -0.0833333   0.2500000), wk =   0.0555556
        k(    7) = (  -0.0833333   0.4166667   0.0833333), wk =   0.0555556
        k(    8) = (  -0.2500000   0.5833333  -0.0833333), wk =   0.1111111
        k(    9) = (   0.5833333  -0.2500000   0.7500000), wk =   0.1111111
        k(   10) = (   0.4166667  -0.0833333   0.5833333), wk =   0.1111111
        k(   11) = (   0.2500000   0.0833333   0.4166667), wk =   0.1111111
        k(   12) = (  -0.0833333   0.7500000   0.0833333), wk =   0.0555556
        k(   13) = (   0.7500000  -0.0833333   0.9166667), wk =   0.1111111
        k(   14) = (   0.5833333   0.0833333   0.7500000), wk =   0.1111111
        k(   15) = (   0.4166667   0.2500000   0.5833333), wk =   0.1111111
        k(   16) = (  -0.0833333  -0.9166667   0.0833333), wk =   0.0555556
        k(   17) = (  -0.2500000  -0.7500000  -0.0833333), wk =   0.1111111
        k(   18) = (  -0.0833333  -0.5833333   0.0833333), wk =   0.0555556
        k(   19) = (  -0.2500000   0.2500000   0.2500000), wk =   0.0185185
        k(   20) = (  -0.4166667   0.4166667   0.0833333), wk =   0.0555556
        k(   21) = (   0.4166667  -0.4166667   0.9166667), wk =   0.0555556
        k(   22) = (   0.2500000  -0.2500000   0.7500000), wk =   0.0555556
        k(   23) = (  -0.2500000   0.5833333   0.2500000), wk =   0.0555556
        k(   24) = (   0.5833333  -0.2500000   1.0833333), wk =   0.1111111
        k(   25) = (   0.4166667  -0.0833333   0.9166667), wk =   0.1111111
        k(   26) = (  -0.2500000  -1.0833333   0.2500000), wk =   0.0555556
        k(   27) = (  -0.4166667   0.4166667   0.4166667), wk =   0.0185185
        k(   28) = (   0.4166667  -0.4166667   1.2500000), wk =   0.0555556

     Dense  grid:    20875 G-vectors     FFT dimensions: (  40,  40,  40)

     Estimated max dynamical RAM per process >       3.30 MB

     Estimated total dynamical RAM >     431.21 MB

     Initial potential from superposition of free atoms

     starting charge       7.9989, renormalised to       8.0000
     Starting wfcs are    8 randomized atomic wfcs

     total cpu time spent up to now is       11.0 secs

     Self-consistent Calculation

     iteration #  1     ecut=    70.00 Ry     beta= 0.70
     Davidson diagonalization with overlap
     ethr =  1.00E-02,  avg # of iterations =  2.0

     Threshold (ethr) on eigenvalues was too large:
     Diagonalizing with lowered threshold

     Davidson diagonalization with overlap
     ethr =  6.11E-04,  avg # of iterations =  2.0

     total cpu time spent up to now is       12.1 secs

     total energy              =     -17.04762523 Ry
     estimated scf accuracy    <       0.05797769 Ry

     iteration #  2     ecut=    70.00 Ry     beta= 0.70
     Davidson diagonalization with overlap
     ethr =  7.25E-04,  avg # of iterations =  1.0

     total cpu time spent up to now is       12.5 secs

     total energy              =     -17.04995257 Ry
     estimated scf accuracy    <       0.00250129 Ry

     iteration #  3     ecut=    70.00 Ry     beta= 0.70
     Davidson diagonalization with overlap
     ethr =  3.13E-05,  avg # of iterations =  2.9

     total cpu time spent up to now is       13.5 secs

     total energy              =     -17.05082623 Ry
     estimated scf accuracy    <       0.00009535 Ry

     iteration #  4     ecut=    70.00 Ry     beta= 0.70
     Davidson diagonalization with overlap
     ethr =  1.19E-06,  avg # of iterations =  4.4

     total cpu time spent up to now is       14.0 secs

     total energy              =     -17.05089794 Ry
     estimated scf accuracy    <       0.00000263 Ry

     iteration #  5     ecut=    70.00 Ry     beta= 0.70
     Davidson diagonalization with overlap
     ethr =  3.29E-08,  avg # of iterations =  4.7

     total cpu time spent up to now is       14.5 secs

     total energy              =     -17.05090100 Ry
     estimated scf accuracy    <       0.00000015 Ry

     iteration #  6     ecut=    70.00 Ry     beta= 0.70
     Davidson diagonalization with overlap
     ethr =  1.87E-09,  avg # of iterations =  3.6

     total cpu time spent up to now is       15.2 secs

     total energy              =     -17.05090106 Ry
     estimated scf accuracy    <       0.00000002 Ry

     iteration #  7     ecut=    70.00 Ry     beta= 0.70
     Davidson diagonalization with overlap
     ethr =  2.17E-10,  avg # of iterations =  2.9

     total cpu time spent up to now is       15.6 secs

     total energy              =     -17.05090107 Ry
     estimated scf accuracy    <          1.4E-10 Ry

     iteration #  8     ecut=    70.00 Ry     beta= 0.70
     Davidson diagonalization with overlap
     ethr =  1.73E-12,  avg # of iterations =  5.7

     total cpu time spent up to now is       16.0 secs

     End of self-consistent calculation

          k =-0.0833 0.0833 0.0833 (  2667 PWs)   bands (ev):

    -5.7561   5.3866   6.1106   6.1106

          k =-0.2500 0.2500-0.0833 (  2621 PWs)   bands (ev):

    -5.2692   3.2787   4.8359   5.9020

          k =-0.4167 0.4167-0.2500 (  2618 PWs)   bands (ev):

    -4.1491   0.4558   4.3704   5.2525

          k = 0.4167-0.4167 0.5833 (  2604 PWs)   bands (ev):

    -3.4239  -0.7235   4.4440   4.8611

          k = 0.2500-0.2500 0.4167 (  2618 PWs)   bands (ev):

    -4.5725   1.3222   4.9163   4.9543

          k = 0.0833-0.0833 0.2500 (  2643 PWs)   bands (ev):

    -5.5104   4.3092   5.4447   5.6431

          k =-0.0833 0.4167 0.0833 (  2627 PWs)   bands (ev):

    -5.0231   3.1094   4.6844   4.6977

          k =-0.2500 0.5833-0.0833 (  2613 PWs)   bands (ev):

    -4.0918   1.2428   3.3199   4.3008

          k = 0.5833-0.2500 0.7500 (  2616 PWs)   bands (ev):

    -2.9383  -0.5645   2.7090   4.0651

          k = 0.4167-0.0833 0.5833 (  2617 PWs)   bands (ev):

    -3.6856   0.5301   2.6549   4.5685

          k = 0.2500 0.0833 0.4167 (  2624 PWs)   bands (ev):

    -4.7922   2.2460   4.0374   5.2604

          k =-0.0833 0.7500 0.0833 (  2617 PWs)   bands (ev):

    -3.3665   0.4197   3.2861   3.6484

          k = 0.7500-0.0833 0.9167 (  2608 PWs)   bands (ev):

    -2.1400  -0.9430   2.4039   3.2176

          k = 0.5833 0.0833 0.7500 (  2608 PWs)   bands (ev):

    -2.5099  -0.6178   1.9049   3.7798

          k = 0.4167 0.2500 0.5833 (  2622 PWs)   bands (ev):

    -3.5664  -0.1967   3.6417   4.6730

          k =-0.0833-0.9167 0.0833 (  2604 PWs)   bands (ev):

    -2.2385  -0.9535   3.0091   3.4290

          k =-0.2500-0.7500-0.0833 (  2615 PWs)   bands (ev):

    -3.1914   0.1893   2.7413   3.5674

          k =-0.0833-0.5833 0.0833 (  2620 PWs)   bands (ev):

    -4.3033   1.8031   3.8479   4.0788

          k =-0.2500 0.2500 0.2500 (  2632 PWs)   bands (ev):

    -5.0343   2.2731   5.4857   5.4857

          k =-0.4167 0.4167 0.0833 (  2620 PWs)   bands (ev):

    -4.3392   1.3430   3.2813   5.3165

          k = 0.4167-0.4167 0.9167 (  2613 PWs)   bands (ev):

    -3.1274  -0.1140   2.1362   4.5076

          k = 0.2500-0.2500 0.7500 (  2618 PWs)   bands (ev):

    -3.0761  -0.1941   2.6355   4.0115

          k =-0.2500 0.5833 0.2500 (  2613 PWs)   bands (ev):

    -3.9042   0.5133   3.7736   4.3933

          k = 0.5833-0.2500 1.0833 (  2619 PWs)   bands (ev):

    -2.8765  -0.2149   2.2381   3.5572

          k = 0.4167-0.0833 0.9167 (  2613 PWs)   bands (ev):

    -2.0245  -0.9506   2.0592   2.8637

          k =-0.2500-1.0833 0.2500 (  2605 PWs)   bands (ev):

    -2.2385  -0.8649   1.9289   3.8127

          k =-0.4167 0.4167 0.4167 (  2602 PWs)   bands (ev):

    -3.8074  -0.3119   5.0941   5.0941

          k = 0.4167-0.4167 1.2500 (  2605 PWs)   bands (ev):

    -3.1840  -0.6106   3.2018   4.6388

     highest occupied level (ev):     6.1106

!    total energy              =     -17.05090107 Ry
     estimated scf accuracy    <          4.7E-11 Ry

     The total energy is the sum of the following terms:
     one-electron contribution =       5.01080853 Ry
     hartree contribution      =       1.07710016 Ry
     xc contribution           =      -6.22230848 Ry
     ewald contribution        =     -16.91650128 Ry

     convergence has been achieved in   8 iterations

     Forces acting on atoms (cartesian axes, Ry/au):

     atom    1 type  1   force =     0.00000000    0.00000000    0.00000000
     atom    2 type  1   force =     0.00000000    0.00000000    0.00000000

     Total force =     0.000000     Total SCF correction =     0.000000

     Writing all to output data dir /fastscratch/tsievers/QE_TMP_DIR/si_ph_bench_poolsize_8_n_procs_160_0.save/
 
     init_run     :      0.40s CPU      0.41s WALL (       1 calls)
     electrons    :      5.18s CPU      5.22s WALL (       1 calls)
     forces       :      0.07s CPU      0.07s WALL (       1 calls)

     Called by init_run:
     wfcinit      :      0.00s CPU      0.01s WALL (       1 calls)
     potinit      :      0.09s CPU      0.09s WALL (       1 calls)
     hinit0       :      0.02s CPU      0.02s WALL (       1 calls)

     Called by electrons:
     c_bands      :      2.29s CPU      2.30s WALL (       9 calls)
     sum_band     :      0.94s CPU      0.94s WALL (       9 calls)
     v_of_rho     :      0.11s CPU      0.11s WALL (       9 calls)
     mix_rho      :      0.00s CPU      0.01s WALL (       9 calls)

     Called by c_bands:
     init_us_2    :      0.01s CPU      0.01s WALL (      40 calls)
     init_us_2:cp :      0.01s CPU      0.01s WALL (      40 calls)
     cegterg      :      0.12s CPU      0.12s WALL (      18 calls)

     Called by *egterg:
     cdiaghg      :      0.04s CPU      0.05s WALL (      87 calls)
     h_psi        :      0.06s CPU      0.06s WALL (      91 calls)
     g_psi        :      0.00s CPU      0.00s WALL (      71 calls)

     Called by h_psi:
     h_psi:calbec :      0.00s CPU      0.01s WALL (      91 calls)
     vloc_psi     :      0.05s CPU      0.05s WALL (      91 calls)
     add_vuspsi   :      0.00s CPU      0.00s WALL (      91 calls)

     General routines
     calbec       :      0.01s CPU      0.01s WALL (      99 calls)
     fft          :      0.01s CPU      0.01s WALL (      31 calls)
     ffts         :      0.14s CPU      0.14s WALL (       9 calls)
     fftw         :      0.05s CPU      0.05s WALL (     632 calls)
 
     Parallel routines
 
     PWSCF        :     16.85s CPU     17.05s WALL

 
   This run was terminated on:   8:18: 9  18May2022            

=------------------------------------------------------------------------------=
   JOB DONE.
=------------------------------------------------------------------------------=

     Program PHONON v.7.0 starts on 18May2022 at  8:18:13 

     This program is part of the open-source Quantum ESPRESSO suite
     for quantum simulation of materials; please cite
         "P. Giannozzi et al., J. Phys.:Condens. Matter 21 395502 (2009);
         "P. Giannozzi et al., J. Phys.:Condens. Matter 29 465901 (2017);
         "P. Giannozzi et al., J. Chem. Phys. 152 154105 (2020);
          URL http://www.quantum-espresso.org", 
     in publications or presentations arising from this work. More details at
     http://www.quantum-espresso.org/quote

     Parallel version (MPI), running on   160 processors

     MPI processes distributed on     8 nodes
     path-images division:  nimage    =       4
     K-points division:     npool     =       5
     R & G space division:  proc/nbgrp/npool/nimage =       8
     22565 MiB available memory on the printing compute node when the environment starts
 
     Reading input from in_files/si_ph_bench_poolsize_8_n_procs_160_0.ph
      Title line not specified: using 'default'.

     Reading xml data from directory:

     /fastscratch/tsievers/QE_TMP_DIR/si_ph_bench_poolsize_8_n_procs_160_0.save/

     IMPORTANT: XC functional enforced from input :
     Exchange-correlation= PW
                           (   1   4   0   0   0   0   0)
     Any further DFT definition will be discarded
     Please, verify this is what you really want

 
     Parallelization info
     --------------------
     sticks:   dense  smooth     PW     G-vecs:    dense   smooth      PW
     Min         125     125     37                 2608     2608     433
     Max         126     126     38                 2611     2611     436
     Sum        1003    1003    301                20875    20875    3479
 
     Using Slab Decomposition
 
     Reading collected, re-writing distributed wavefunctions


     Dynamical matrices for ( 6, 6, 6)  uniform grid of q-points
     (  16 q-points):
       N         xq(1)         xq(2)         xq(3) 
       1   0.000000000   0.000000000   0.000000000
       2  -0.166666667   0.166666667  -0.166666667
       3  -0.333333333   0.333333333  -0.333333333
       4   0.500000000  -0.500000000   0.500000000
       5   0.000000000   0.333333333   0.000000000
       6  -0.166666667   0.500000000  -0.166666667
       7   0.666666667  -0.333333333   0.666666667
       8   0.500000000  -0.166666667   0.500000000
       9   0.333333333   0.000000000   0.333333333
      10   0.000000000   0.666666667   0.000000000
      11   0.833333333  -0.166666667   0.833333333
      12   0.666666667  -0.000000000   0.666666667
      13   0.000000000  -1.000000000   0.000000000
      14   0.666666667  -0.333333333   1.000000000
      15   0.500000000  -0.166666667   0.833333333
      16  -0.333333333  -1.000000000   0.000000000

      Image parallelization. There are  4 images and    76 representations
      The estimated total work is  1512 self-consistent (scf) runs
      I am image number     0 and my work is about  357 scf runs. I calculate: 
      q point number     1, representations:
       0 1 2
      q point number     2, representations:
       0 1 2 3 4
      q point number     3, representations:
       0 1 2 3 4
      q point number     4, representations:
       0 1 2 3 4
      q point number     5, representations:
       0 1 2 3 4
      q point number     6, representations:
       0 1 2 3 4 5 6

     Calculation of q =    0.0000000   0.0000000   0.0000000

     default                                                                    

     bravais-lattice index     =            2
     lattice parameter (alat)  =      10.1899  a.u.
     unit-cell volume          =     264.5151 (a.u.)^3
     number of atoms/cell      =            2
     number of atomic types    =            1
     kinetic-energy cut-off    =      70.0000  Ry
     charge density cut-off    =     280.0000  Ry
     convergence threshold     =      1.0E-15
     beta                      =       0.7000
     number of iterations used =            4
     Exchange-correlation= PW
                           (   1   4   0   0   0   0   0)


     celldm(1)=   10.18990  celldm(2)=    0.00000  celldm(3)=    0.00000
     celldm(4)=    0.00000  celldm(5)=    0.00000  celldm(6)=    0.00000

     crystal axes: (cart. coord. in units of alat)
               a(1) = ( -0.5000  0.0000  0.5000 )  
               a(2) = (  0.0000  0.5000  0.5000 )  
               a(3) = ( -0.5000  0.5000  0.0000 )  

     reciprocal axes: (cart. coord. in units 2 pi/alat)
               b(1) = ( -1.0000 -1.0000  1.0000 )  
               b(2) = (  1.0000  1.0000  1.0000 )  
               b(3) = ( -1.0000  1.0000 -1.0000 )  


     Atoms inside the unit cell: 

     Cartesian axes

     site n.  atom      mass           positions (alat units)
        1     Si  28.0855   tau(    1) = (    0.00000    0.00000    0.00000  )
        2     Si  28.0855   tau(    2) = (   -0.25000    0.25000    0.25000  )

     Computing dynamical matrix for 
                    q = (   0.0000000   0.0000000   0.0000000 )
 
     49 Sym.Ops. (with q -> -q+G )


     G cutoff =  736.4420  (   2611 G-vectors)     FFT grid: ( 40, 40, 40)
     number of k points=    28

     PseudoPot. # 1 for Si read from file:
     ./pseudos/Si.nc.UPF
     MD5 check sum: 9e2d726316af3d4752eea8ab0afbb951
     Pseudo is Norm-conserving + core correction, Zval =  4.0
     Generated using ONCVPSP code by D. R. Hamann
     Using radial grid of 1510 points,  6 beta functions with: 
                l(1) =   0
                l(2) =   0
                l(3) =   1
                l(4) =   1
                l(5) =   2
                l(6) =   2

     Mode symmetry, O_h (m-3m)  point group:


     Electric field:
     Dielectric constant
     Born effective charges in two ways 


     Atomic displacements:
     There are    2 irreducible representations

     Representation     1      3 modes -  To be done

     Representation     2      3 modes -  To be done



     Alpha used in Ewald sum =   2.8000
     PHONON       :     30.14s CPU     30.34s WALL


     Electric Fields Calculation

      iter #   1 total cpu time :    31.1 secs   av.it.:   6.5
      thresh= 1.000E-02 alpha_mix =  0.700 |ddv_scf|^2 =  1.151E-07

      iter #   2 total cpu time :    32.4 secs   av.it.:  11.6
      thresh= 3.392E-05 alpha_mix =  0.700 |ddv_scf|^2 =  4.931E-09

      iter #   3 total cpu time :    33.1 secs   av.it.:  11.5
      thresh= 7.022E-06 alpha_mix =  0.700 |ddv_scf|^2 =  5.558E-11

      iter #   4 total cpu time :    33.7 secs   av.it.:  11.8
      thresh= 7.455E-07 alpha_mix =  0.700 |ddv_scf|^2 =  3.297E-13

      iter #   5 total cpu time :    34.8 secs   av.it.:  10.8
      thresh= 5.742E-08 alpha_mix =  0.700 |ddv_scf|^2 =  1.210E-16

     End of electric fields calculation

          Dielectric constant in cartesian axis 

          (      13.311970662       0.000000000       0.000000000 )
          (       0.000000000      13.311970662       0.000000000 )
          (       0.000000000      -0.000000000      13.311970662 )

          Effective charges (d Force / dE) in cartesian axis without acoustic sum rule applied (asr)

           atom      1   Si Mean Z*:       -0.00674
      Ex  (       -0.00674        0.00000        0.00000 )
      Ey  (        0.00000       -0.00674       -0.00000 )
      Ez  (        0.00000       -0.00000       -0.00674 )
           atom      2   Si Mean Z*:       -0.00674
      Ex  (       -0.00674        0.00000        0.00000 )
      Ey  (        0.00000       -0.00674        0.00000 )
      Ez  (        0.00000       -0.00000       -0.00674 )

          Effective charges Sum: Mean:       -0.01349
             -0.01349        0.00000        0.00000
              0.00000       -0.01349       -0.00000
              0.00000       -0.00000       -0.01349

          Effective charges (d Force / dE) in cartesian axis with asr applied: 
           atom      1   Si Mean Z*:        0.00000
      E*x (        0.00000       -0.00000        0.00000 )
      E*y (        0.00000        0.00000       -0.00000 )
      E*z (        0.00000       -0.00000        0.00000 )
           atom      2   Si Mean Z*:       -0.00000
      E*x (        0.00000        0.00000       -0.00000 )
      E*y (       -0.00000       -0.00000        0.00000 )
      E*z (       -0.00000        0.00000       -0.00000 )


     Representation #   1 modes #   1   2   3

     Self-consistent Calculation

      iter #   1 total cpu time :    36.3 secs   av.it.:   5.8
      thresh= 1.000E-02 alpha_mix =  0.700 |ddv_scf|^2 =  1.659E-08

      iter #   2 total cpu time :    39.1 secs   av.it.:  11.6
      thresh= 1.288E-05 alpha_mix =  0.700 |ddv_scf|^2 =  3.727E-10

      iter #   3 total cpu time :    39.9 secs   av.it.:  11.6
      thresh= 1.931E-06 alpha_mix =  0.700 |ddv_scf|^2 =  1.391E-11

      iter #   4 total cpu time :    40.9 secs   av.it.:  11.4
      thresh= 3.730E-07 alpha_mix =  0.700 |ddv_scf|^2 =  4.505E-14

      iter #   5 total cpu time :    41.5 secs   av.it.:  11.8
      thresh= 2.123E-08 alpha_mix =  0.700 |ddv_scf|^2 =  2.091E-16

     End of self-consistent calculation

     Convergence has been achieved 


     Representation #   2 modes #   4   5   6

     Self-consistent Calculation

      iter #   1 total cpu time :    42.9 secs   av.it.:   6.0
      thresh= 1.000E-02 alpha_mix =  0.700 |ddv_scf|^2 =  1.197E-08

      iter #   2 total cpu time :    43.8 secs   av.it.:  11.8
      thresh= 1.094E-05 alpha_mix =  0.700 |ddv_scf|^2 =  4.305E-10

      iter #   3 total cpu time :    44.6 secs   av.it.:  11.8
      thresh= 2.075E-06 alpha_mix =  0.700 |ddv_scf|^2 =  1.960E-11

      iter #   4 total cpu time :    45.4 secs   av.it.:  11.7
      thresh= 4.427E-07 alpha_mix =  0.700 |ddv_scf|^2 =  3.508E-14

      iter #   5 total cpu time :    46.0 secs   av.it.:  11.8
      thresh= 1.873E-08 alpha_mix =  0.700 |ddv_scf|^2 =  9.422E-17

     End of self-consistent calculation

     Convergence has been achieved 
 
     Number of q in the star =    1
     List of q in the star:
          1   0.000000000   0.000000000   0.000000000

          Dielectric constant in cartesian axis 

          (      13.311970662       0.000000000       0.000000000 )
          (       0.000000000      13.311970662       0.000000000 )
          (       0.000000000      -0.000000000      13.311970662 )

          Effective charges (d Force / dE) in cartesian axis without acoustic sum rule applied (asr)

           atom      1   Si Mean Z*:       -0.00674
      Ex  (       -0.00674        0.00000        0.00000 )
      Ey  (        0.00000       -0.00674       -0.00000 )
      Ez  (        0.00000       -0.00000       -0.00674 )
           atom      2   Si Mean Z*:       -0.00674
      Ex  (       -0.00674        0.00000        0.00000 )
      Ey  (        0.00000       -0.00674        0.00000 )
      Ez  (        0.00000       -0.00000       -0.00674 )

          Effective charges Sum: Mean:       -0.01349
             -0.01349        0.00000        0.00000
              0.00000       -0.01349       -0.00000
              0.00000       -0.00000       -0.01349

          Effective charges (d Force / dE) in cartesian axis with asr applied: 
           atom      1   Si Mean Z*:        0.00000
      E*x (        0.00000       -0.00000        0.00000 )
      E*y (        0.00000        0.00000       -0.00000 )
      E*z (        0.00000       -0.00000        0.00000 )
           atom      2   Si Mean Z*:       -0.00000
      E*x (        0.00000        0.00000       -0.00000 )
      E*y (       -0.00000       -0.00000        0.00000 )
      E*z (       -0.00000        0.00000       -0.00000 )

          Effective charges (d P / du) in cartesian axis 

           atom      1   Si 
      Px  (       -0.00681        0.00000        0.00000 )
      Py  (        0.00000       -0.00681        0.00000 )
      Pz  (        0.00000       -0.00000       -0.00681 )
           atom      2   Si 
      Px  (       -0.00681        0.00000        0.00000 )
      Py  (        0.00000       -0.00681       -0.00000 )
      Pz  (        0.00000       -0.00000       -0.00681 )

     Diagonalizing the dynamical matrix

     q = (    0.000000000   0.000000000   0.000000000 ) 

 **************************************************************************
     freq (    1) =      -0.118039 [THz] =      -3.937357 [cm-1]
     freq (    2) =      -0.118039 [THz] =      -3.937357 [cm-1]
     freq (    3) =      -0.118039 [THz] =      -3.937357 [cm-1]
     freq (    4) =      15.412045 [THz] =     514.090475 [cm-1]
     freq (    5) =      15.412045 [THz] =     514.090475 [cm-1]
     freq (    6) =      15.412045 [THz] =     514.090475 [cm-1]
 **************************************************************************

     Mode symmetry, O_h (m-3m)  point group:

     freq (   1-   3) =         -3.9  [cm-1]   --> T_1u G_15  G_4- I  
     freq (   4-   6) =        514.1  [cm-1]   --> T_2g G_25' G_5+ R  

     Calculation of q =   -0.1666667   0.1666667  -0.1666667

     Subspace diagonalization in iterative solution of the eigenvalue problem:
     one sub-group per band group will be used
     scalapack distributed-memory algorithm (size of sub-group:  2*  2 procs)

 
     Parallelization info
     --------------------
     sticks:   dense  smooth     PW     G-vecs:    dense   smooth      PW
     Min         125     125     39                 2608     2608     461
     Max         126     126     40                 2611     2611     463
     Sum        1003    1003    313                20875    20875    3695
 
     Using Slab Decomposition
 

     Title: 
     default                                                                    


     bravais-lattice index     =            2
     lattice parameter (alat)  =      10.1899  a.u.
     unit-cell volume          =     264.5151 (a.u.)^3
     number of atoms/cell      =            2
     number of atomic types    =            1
     number of electrons       =         8.00
     number of Kohn-Sham states=            4
     kinetic-energy cutoff     =      70.0000  Ry
     charge density cutoff     =     280.0000  Ry
     Exchange-correlation= PW
                           (   1   4   0   0   0   0   0)

     celldm(1)=  10.189905  celldm(2)=   0.000000  celldm(3)=   0.000000
     celldm(4)=   0.000000  celldm(5)=   0.000000  celldm(6)=   0.000000

     crystal axes: (cart. coord. in units of alat)
               a(1) = (  -0.500000   0.000000   0.500000 )  
               a(2) = (   0.000000   0.500000   0.500000 )  
               a(3) = (  -0.500000   0.500000   0.000000 )  

     reciprocal axes: (cart. coord. in units 2 pi/alat)
               b(1) = ( -1.000000 -1.000000  1.000000 )  
               b(2) = (  1.000000  1.000000  1.000000 )  
               b(3) = ( -1.000000  1.000000 -1.000000 )  


     PseudoPot. # 1 for Si read from file:
     ./pseudos/Si.nc.UPF
     MD5 check sum: 9e2d726316af3d4752eea8ab0afbb951
     Pseudo is Norm-conserving + core correction, Zval =  4.0
     Generated using ONCVPSP code by D. R. Hamann
     Using radial grid of 1510 points,  6 beta functions with: 
                l(1) =   0
                l(2) =   0
                l(3) =   1
                l(4) =   1
                l(5) =   2
                l(6) =   2

     atomic species   valence    mass     pseudopotential
        Si             4.00    28.08550     Si( 1.00)

     48 Sym. Ops., with inversion, found



   Cartesian axes

     site n.     atom                  positions (alat units)
         1           Si  tau(   1) = (   0.0000000   0.0000000   0.0000000  )
         2           Si  tau(   2) = (  -0.2500000   0.2500000   0.2500000  )

     number of k points=   364

     Number of k-points >= 100: set verbosity='high' to print them.

     Dense  grid:    20875 G-vectors     FFT dimensions: (  40,  40,  40)

     Estimated max dynamical RAM per process >       2.62 MB

     Estimated total dynamical RAM >     104.83 MB

     The potential is recalculated from file :
     /fastscratch/tsievers/QE_TMP_DIR/_ph0/si_ph_bench_poolsize_8_n_procs_160_0.save/charge-density

     Starting wfcs are    8 atomic wfcs

     Band Structure Calculation
     Davidson diagonalization with overlap

     ethr =  1.25E-10,  avg # of iterations = 12.9

     total cpu time spent up to now is        2.5 secs

     End of band structure calculation

     Number of k-points >= 100: set verbosity='high' to print the bands.

     highest occupied level (ev):     6.1106

     Writing config to output data dir /fastscratch/tsievers/QE_TMP_DIR/_ph0/si_ph_bench_poolsize_8_n_procs_160_0.save/

     default                                                                    

     bravais-lattice index     =            2
     lattice parameter (alat)  =      10.1899  a.u.
     unit-cell volume          =     264.5151 (a.u.)^3
     number of atoms/cell      =            2
     number of atomic types    =            1
     kinetic-energy cut-off    =      70.0000  Ry
     charge density cut-off    =     280.0000  Ry
     convergence threshold     =      1.0E-15
     beta                      =       0.7000
     number of iterations used =            4
     Exchange-correlation= PW
                           (   1   4   0   0   0   0   0)


     celldm(1)=   10.18990  celldm(2)=    0.00000  celldm(3)=    0.00000
     celldm(4)=    0.00000  celldm(5)=    0.00000  celldm(6)=    0.00000

     crystal axes: (cart. coord. in units of alat)
               a(1) = ( -0.5000  0.0000  0.5000 )  
               a(2) = (  0.0000  0.5000  0.5000 )  
               a(3) = ( -0.5000  0.5000  0.0000 )  

     reciprocal axes: (cart. coord. in units 2 pi/alat)
               b(1) = ( -1.0000 -1.0000  1.0000 )  
               b(2) = (  1.0000  1.0000  1.0000 )  
               b(3) = ( -1.0000  1.0000 -1.0000 )  


     Atoms inside the unit cell: 

     Cartesian axes

     site n.  atom      mass           positions (alat units)
        1     Si  28.0855   tau(    1) = (    0.00000    0.00000    0.00000  )
        2     Si  28.0855   tau(    2) = (   -0.25000    0.25000    0.25000  )

     Computing dynamical matrix for 
                    q = (  -0.1666667   0.1666667  -0.1666667 )
 
      6 Sym.Ops. (no q -> -q+G )


     G cutoff =  736.4420  (   2611 G-vectors)     FFT grid: ( 40, 40, 40)
     number of k points=   364

     PseudoPot. # 1 for Si read from file:
     ./pseudos/Si.nc.UPF
     MD5 check sum: 9e2d726316af3d4752eea8ab0afbb951
     Pseudo is Norm-conserving + core correction, Zval =  4.0
     Generated using ONCVPSP code by D. R. Hamann
     Using radial grid of 1510 points,  6 beta functions with: 
                l(1) =   0
                l(2) =   0
                l(3) =   1
                l(4) =   1
                l(5) =   2
                l(6) =   2

     Mode symmetry, C_3v (3m)   point group:


     Atomic displacements:
     There are    4 irreducible representations

     Representation     1      1 modes -  To be done

     Representation     2      1 modes -  To be done

     Representation     3      2 modes -  To be done

     Representation     4      2 modes -  To be done



     Alpha used in Ewald sum =   2.8000
     PHONON       :     44.64s CPU     50.28s WALL



     Representation #   1 mode #   1

     Self-consistent Calculation

      iter #   1 total cpu time :    50.7 secs   av.it.:   6.6
      thresh= 1.000E-02 alpha_mix =  0.700 |ddv_scf|^2 =  1.552E-03

      iter #   2 total cpu time :    51.4 secs   av.it.:   8.8
      thresh= 3.939E-03 alpha_mix =  0.700 |ddv_scf|^2 =  5.085E-02

      iter #   3 total cpu time :    52.0 secs   av.it.:   7.6
      thresh= 1.000E-02 alpha_mix =  0.700 |ddv_scf|^2 =  4.138E-07

      iter #   4 total cpu time :    52.8 secs   av.it.:   9.1
      thresh= 6.433E-05 alpha_mix =  0.700 |ddv_scf|^2 =  1.355E-08

      iter #   5 total cpu time :    53.4 secs   av.it.:   9.4
      thresh= 1.164E-05 alpha_mix =  0.700 |ddv_scf|^2 =  8.910E-10

      iter #   6 total cpu time :    54.5 secs   av.it.:   8.3
      thresh= 2.985E-06 alpha_mix =  0.700 |ddv_scf|^2 =  1.603E-09

      iter #   7 total cpu time :    55.1 secs   av.it.:   7.9
      thresh= 4.004E-06 alpha_mix =  0.700 |ddv_scf|^2 =  9.331E-11

      iter #   8 total cpu time :    55.9 secs   av.it.:   8.4
      thresh= 9.660E-07 alpha_mix =  0.700 |ddv_scf|^2 =  7.429E-13

      iter #   9 total cpu time :    56.6 secs   av.it.:   8.2
      thresh= 8.619E-08 alpha_mix =  0.700 |ddv_scf|^2 =  1.679E-14

      iter #  10 total cpu time :    57.2 secs   av.it.:   8.5
      thresh= 1.296E-08 alpha_mix =  0.700 |ddv_scf|^2 =  1.534E-15

      iter #  11 total cpu time :    57.7 secs   av.it.:   9.0
      thresh= 3.916E-09 alpha_mix =  0.700 |ddv_scf|^2 =  2.321E-16

     End of self-consistent calculation

     Convergence has been achieved 


     Representation #   2 mode #   2

     Self-consistent Calculation

      iter #   1 total cpu time :    58.3 secs   av.it.:   6.6
      thresh= 1.000E-02 alpha_mix =  0.700 |ddv_scf|^2 =  1.552E-03

      iter #   2 total cpu time :    58.9 secs   av.it.:   8.8
      thresh= 3.939E-03 alpha_mix =  0.700 |ddv_scf|^2 =  5.085E-02

      iter #   3 total cpu time :    59.4 secs   av.it.:   7.6
      thresh= 1.000E-02 alpha_mix =  0.700 |ddv_scf|^2 =  4.138E-07

      iter #   4 total cpu time :    60.0 secs   av.it.:   9.1
      thresh= 6.433E-05 alpha_mix =  0.700 |ddv_scf|^2 =  1.355E-08

      iter #   5 total cpu time :    60.8 secs   av.it.:   9.4
      thresh= 1.164E-05 alpha_mix =  0.700 |ddv_scf|^2 =  8.910E-10

      iter #   6 total cpu time :    61.5 secs   av.it.:   8.3
      thresh= 2.985E-06 alpha_mix =  0.700 |ddv_scf|^2 =  1.603E-09

      iter #   7 total cpu time :    62.0 secs   av.it.:   7.9
      thresh= 4.004E-06 alpha_mix =  0.700 |ddv_scf|^2 =  9.331E-11

      iter #   8 total cpu time :    62.8 secs   av.it.:   8.4
      thresh= 9.660E-07 alpha_mix =  0.700 |ddv_scf|^2 =  7.429E-13

      iter #   9 total cpu time :    63.6 secs   av.it.:   8.2
      thresh= 8.619E-08 alpha_mix =  0.700 |ddv_scf|^2 =  1.679E-14

      iter #  10 total cpu time :    64.1 secs   av.it.:   8.5
      thresh= 1.296E-08 alpha_mix =  0.700 |ddv_scf|^2 =  1.533E-15

      iter #  11 total cpu time :    64.7 secs   av.it.:   9.0
      thresh= 3.915E-09 alpha_mix =  0.700 |ddv_scf|^2 =  2.321E-16

     End of self-consistent calculation

     Convergence has been achieved 


     Representation #   3 modes #   3   4

     Self-consistent Calculation

      iter #   1 total cpu time :    67.4 secs   av.it.:   6.1
      thresh= 1.000E-02 alpha_mix =  0.700 |ddv_scf|^2 =  4.048E-08

      iter #   2 total cpu time :    68.9 secs   av.it.:  11.4
      thresh= 2.012E-05 alpha_mix =  0.700 |ddv_scf|^2 =  1.801E-09

      iter #   3 total cpu time :    71.5 secs   av.it.:  11.3
      thresh= 4.244E-06 alpha_mix =  0.700 |ddv_scf|^2 =  4.704E-11

      iter #   4 total cpu time :    73.9 secs   av.it.:  11.3
      thresh= 6.859E-07 alpha_mix =  0.700 |ddv_scf|^2 =  5.427E-13

      iter #   5 total cpu time :    76.0 secs   av.it.:  11.3
      thresh= 7.367E-08 alpha_mix =  0.700 |ddv_scf|^2 =  1.152E-14

      iter #   6 total cpu time :    77.2 secs   av.it.:  11.6
      thresh= 1.073E-08 alpha_mix =  0.700 |ddv_scf|^2 =  5.230E-17

     End of self-consistent calculation

     Convergence has been achieved 


     Representation #   4 modes #   5   6

     Self-consistent Calculation

      iter #   1 total cpu time :    78.4 secs   av.it.:   6.0
      thresh= 1.000E-02 alpha_mix =  0.700 |ddv_scf|^2 =  4.048E-08

      iter #   2 total cpu time :    80.0 secs   av.it.:  11.3
      thresh= 2.012E-05 alpha_mix =  0.700 |ddv_scf|^2 =  1.802E-09

      iter #   3 total cpu time :    81.3 secs   av.it.:  11.3
      thresh= 4.245E-06 alpha_mix =  0.700 |ddv_scf|^2 =  4.704E-11

      iter #   4 total cpu time :    83.7 secs   av.it.:  11.3
      thresh= 6.859E-07 alpha_mix =  0.700 |ddv_scf|^2 =  5.430E-13

      iter #   5 total cpu time :    85.6 secs   av.it.:  11.3
      thresh= 7.369E-08 alpha_mix =  0.700 |ddv_scf|^2 =  1.153E-14

      iter #   6 total cpu time :    86.8 secs   av.it.:  11.6
      thresh= 1.074E-08 alpha_mix =  0.700 |ddv_scf|^2 =  5.227E-17

     End of self-consistent calculation

     Convergence has been achieved 
 
     Number of q in the star =    8
     List of q in the star:
          1  -0.166666667   0.166666667  -0.166666667
          2   0.166666667   0.166666667   0.166666667
          3  -0.166666667  -0.166666667  -0.166666667
          4   0.166666667  -0.166666667   0.166666667
          5   0.166666667  -0.166666667  -0.166666667
          6   0.166666667   0.166666667  -0.166666667
          7  -0.166666667  -0.166666667   0.166666667
          8  -0.166666667   0.166666667   0.166666667

     Diagonalizing the dynamical matrix

     q = (   -0.166666667   0.166666667  -0.166666667 ) 

 **************************************************************************
     freq (    1) =       2.202608 [THz] =      73.471081 [cm-1]
     freq (    2) =       2.202608 [THz] =      73.471081 [cm-1]
     freq (    3) =       4.748020 [THz] =     158.376890 [cm-1]
     freq (    4) =      15.023883 [THz] =     501.142788 [cm-1]
     freq (    5) =      15.065865 [THz] =     502.543153 [cm-1]
     freq (    6) =      15.065865 [THz] =     502.543153 [cm-1]
 **************************************************************************

     Mode symmetry, C_3v (3m)   point group:

     freq (   1-   2) =         73.5  [cm-1]   --> E    L_3           
     freq (   3-   3) =        158.4  [cm-1]   --> A_1  L_1           
     freq (   4-   4) =        501.1  [cm-1]   --> A_1  L_1           
     freq (   5-   6) =        502.5  [cm-1]   --> E    L_3           

     Calculation of q =   -0.3333333   0.3333333  -0.3333333
 
     Parallelization info
     --------------------
     sticks:   dense  smooth     PW     G-vecs:    dense   smooth      PW
     Min         125     125     39                 2608     2608     479
     Max         126     126     40                 2611     2611     484
     Sum        1003    1003    313                20875    20875    3839
 
     Using Slab Decomposition
 

     Title: 
     default                                                                    


     bravais-lattice index     =            2
     lattice parameter (alat)  =      10.1899  a.u.
     unit-cell volume          =     264.5151 (a.u.)^3
     number of atoms/cell      =            2
     number of atomic types    =            1
     number of electrons       =         8.00
     number of Kohn-Sham states=            4
     kinetic-energy cutoff     =      70.0000  Ry
     charge density cutoff     =     280.0000  Ry
     Exchange-correlation= PW
                           (   1   4   0   0   0   0   0)

     celldm(1)=  10.189905  celldm(2)=   0.000000  celldm(3)=   0.000000
     celldm(4)=   0.000000  celldm(5)=   0.000000  celldm(6)=   0.000000

     crystal axes: (cart. coord. in units of alat)
               a(1) = (  -0.500000   0.000000   0.500000 )  
               a(2) = (   0.000000   0.500000   0.500000 )  
               a(3) = (  -0.500000   0.500000   0.000000 )  

     reciprocal axes: (cart. coord. in units 2 pi/alat)
               b(1) = ( -1.000000 -1.000000  1.000000 )  
               b(2) = (  1.000000  1.000000  1.000000 )  
               b(3) = ( -1.000000  1.000000 -1.000000 )  


     PseudoPot. # 1 for Si read from file:
     ./pseudos/Si.nc.UPF
     MD5 check sum: 9e2d726316af3d4752eea8ab0afbb951
     Pseudo is Norm-conserving + core correction, Zval =  4.0
     Generated using ONCVPSP code by D. R. Hamann
     Using radial grid of 1510 points,  6 beta functions with: 
                l(1) =   0
                l(2) =   0
                l(3) =   1
                l(4) =   1
                l(5) =   2
                l(6) =   2

     atomic species   valence    mass     pseudopotential
        Si             4.00    28.08550     Si( 1.00)

     48 Sym. Ops., with inversion, found



   Cartesian axes

     site n.     atom                  positions (alat units)
         1           Si  tau(   1) = (   0.0000000   0.0000000   0.0000000  )
         2           Si  tau(   2) = (  -0.2500000   0.2500000   0.2500000  )

     number of k points=   364

     Number of k-points >= 100: set verbosity='high' to print them.

     Dense  grid:    20875 G-vectors     FFT dimensions: (  40,  40,  40)

     Estimated max dynamical RAM per process >       2.63 MB

     Estimated total dynamical RAM >     105.37 MB

     The potential is recalculated from file :
     /fastscratch/tsievers/QE_TMP_DIR/_ph0/si_ph_bench_poolsize_8_n_procs_160_0.save/charge-density

     Starting wfcs are    8 atomic wfcs

     Band Structure Calculation
     Davidson diagonalization with overlap

     ethr =  1.25E-10,  avg # of iterations = 12.9

     total cpu time spent up to now is        5.4 secs

     End of band structure calculation

     Number of k-points >= 100: set verbosity='high' to print the bands.

     highest occupied level (ev):     6.1106

     Writing config to output data dir /fastscratch/tsievers/QE_TMP_DIR/_ph0/si_ph_bench_poolsize_8_n_procs_160_0.save/

     default                                                                    

     bravais-lattice index     =            2
     lattice parameter (alat)  =      10.1899  a.u.
     unit-cell volume          =     264.5151 (a.u.)^3
     number of atoms/cell      =            2
     number of atomic types    =            1
     kinetic-energy cut-off    =      70.0000  Ry
     charge density cut-off    =     280.0000  Ry
     convergence threshold     =      1.0E-15
     beta                      =       0.7000
     number of iterations used =            4
     Exchange-correlation= PW
                           (   1   4   0   0   0   0   0)


     celldm(1)=   10.18990  celldm(2)=    0.00000  celldm(3)=    0.00000
     celldm(4)=    0.00000  celldm(5)=    0.00000  celldm(6)=    0.00000

     crystal axes: (cart. coord. in units of alat)
               a(1) = ( -0.5000  0.0000  0.5000 )  
               a(2) = (  0.0000  0.5000  0.5000 )  
               a(3) = ( -0.5000  0.5000  0.0000 )  

     reciprocal axes: (cart. coord. in units 2 pi/alat)
               b(1) = ( -1.0000 -1.0000  1.0000 )  
               b(2) = (  1.0000  1.0000  1.0000 )  
               b(3) = ( -1.0000  1.0000 -1.0000 )  


     Atoms inside the unit cell: 

     Cartesian axes

     site n.  atom      mass           positions (alat units)
        1     Si  28.0855   tau(    1) = (    0.00000    0.00000    0.00000  )
        2     Si  28.0855   tau(    2) = (   -0.25000    0.25000    0.25000  )

     Computing dynamical matrix for 
                    q = (  -0.3333333   0.3333333  -0.3333333 )
 
      6 Sym.Ops. (no q -> -q+G )


     G cutoff =  736.4420  (   2611 G-vectors)     FFT grid: ( 40, 40, 40)
     number of k points=   364

     PseudoPot. # 1 for Si read from file:
     ./pseudos/Si.nc.UPF
     MD5 check sum: 9e2d726316af3d4752eea8ab0afbb951
     Pseudo is Norm-conserving + core correction, Zval =  4.0
     Generated using ONCVPSP code by D. R. Hamann
     Using radial grid of 1510 points,  6 beta functions with: 
                l(1) =   0
                l(2) =   0
                l(3) =   1
                l(4) =   1
                l(5) =   2
                l(6) =   2

     Mode symmetry, C_3v (3m)   point group:


     Atomic displacements:
     There are    4 irreducible representations

     Representation     1      1 modes -  To be done

     Representation     2      1 modes -  To be done

     Representation     3      2 modes -  To be done

     Representation     4      2 modes -  To be done



     Alpha used in Ewald sum =   2.8000
     PHONON       :   1m19.20s CPU   1m30.51s WALL



     Representation #   1 mode #   1

     Self-consistent Calculation

      iter #   1 total cpu time :    91.0 secs   av.it.:   6.5
      thresh= 1.000E-02 alpha_mix =  0.700 |ddv_scf|^2 =  9.826E-05

      iter #   2 total cpu time :    91.6 secs   av.it.:   9.7
      thresh= 9.913E-04 alpha_mix =  0.700 |ddv_scf|^2 =  7.842E-04

      iter #   3 total cpu time :    92.2 secs   av.it.:   8.3
      thresh= 2.800E-03 alpha_mix =  0.700 |ddv_scf|^2 =  1.443E-07

      iter #   4 total cpu time :    92.9 secs   av.it.:   9.8
      thresh= 3.799E-05 alpha_mix =  0.700 |ddv_scf|^2 =  2.930E-09

      iter #   5 total cpu time :    93.6 secs   av.it.:   9.9
      thresh= 5.413E-06 alpha_mix =  0.700 |ddv_scf|^2 =  3.098E-11

      iter #   6 total cpu time :    94.2 secs   av.it.:  10.4
      thresh= 5.566E-07 alpha_mix =  0.700 |ddv_scf|^2 =  3.119E-12

      iter #   7 total cpu time :    94.9 secs   av.it.:  10.3
      thresh= 1.766E-07 alpha_mix =  0.700 |ddv_scf|^2 =  1.965E-12

      iter #   8 total cpu time :    95.7 secs   av.it.:   9.4
      thresh= 1.402E-07 alpha_mix =  0.700 |ddv_scf|^2 =  2.442E-12

      iter #   9 total cpu time :    96.5 secs   av.it.:   8.9
      thresh= 1.563E-07 alpha_mix =  0.700 |ddv_scf|^2 =  2.924E-13

      iter #  10 total cpu time :    97.1 secs   av.it.:   8.9
      thresh= 5.407E-08 alpha_mix =  0.700 |ddv_scf|^2 =  1.654E-15

      iter #  11 total cpu time :    97.7 secs   av.it.:   9.6
      thresh= 4.067E-09 alpha_mix =  0.700 |ddv_scf|^2 =  1.612E-16

     End of self-consistent calculation

     Convergence has been achieved 


     Representation #   2 mode #   2

     Self-consistent Calculation

      iter #   1 total cpu time :    98.9 secs   av.it.:   6.5
      thresh= 1.000E-02 alpha_mix =  0.700 |ddv_scf|^2 =  9.826E-05

      iter #   2 total cpu time :    99.5 secs   av.it.:   9.7
      thresh= 9.913E-04 alpha_mix =  0.700 |ddv_scf|^2 =  7.842E-04

      iter #   3 total cpu time :   100.3 secs   av.it.:   8.3
      thresh= 2.800E-03 alpha_mix =  0.700 |ddv_scf|^2 =  1.443E-07

      iter #   4 total cpu time :   101.3 secs   av.it.:   9.8
      thresh= 3.799E-05 alpha_mix =  0.700 |ddv_scf|^2 =  2.930E-09

      iter #   5 total cpu time :   101.9 secs   av.it.:   9.9
      thresh= 5.413E-06 alpha_mix =  0.700 |ddv_scf|^2 =  3.098E-11

      iter #   6 total cpu time :   102.6 secs   av.it.:  10.4
      thresh= 5.566E-07 alpha_mix =  0.700 |ddv_scf|^2 =  3.117E-12

      iter #   7 total cpu time :   103.2 secs   av.it.:  10.3
      thresh= 1.766E-07 alpha_mix =  0.700 |ddv_scf|^2 =  1.960E-12

      iter #   8 total cpu time :   104.1 secs   av.it.:   9.5
      thresh= 1.400E-07 alpha_mix =  0.700 |ddv_scf|^2 =  2.441E-12

      iter #   9 total cpu time :   105.2 secs   av.it.:   8.9
      thresh= 1.562E-07 alpha_mix =  0.700 |ddv_scf|^2 =  2.920E-13

      iter #  10 total cpu time :   105.8 secs   av.it.:   8.9
      thresh= 5.404E-08 alpha_mix =  0.700 |ddv_scf|^2 =  1.649E-15

      iter #  11 total cpu time :   106.4 secs   av.it.:   9.6
      thresh= 4.061E-09 alpha_mix =  0.700 |ddv_scf|^2 =  1.609E-16

     End of self-consistent calculation

     Convergence has been achieved 


     Representation #   3 modes #   3   4

     Self-consistent Calculation

      iter #   1 total cpu time :   107.3 secs   av.it.:   6.1
      thresh= 1.000E-02 alpha_mix =  0.700 |ddv_scf|^2 =  5.513E-08

      iter #   2 total cpu time :   108.6 secs   av.it.:  11.4
      thresh= 2.348E-05 alpha_mix =  0.700 |ddv_scf|^2 =  3.819E-09

      iter #   3 total cpu time :   110.0 secs   av.it.:  11.2
      thresh= 6.180E-06 alpha_mix =  0.700 |ddv_scf|^2 =  5.530E-11

      iter #   4 total cpu time :   111.5 secs   av.it.:  11.4
      thresh= 7.436E-07 alpha_mix =  0.700 |ddv_scf|^2 =  5.545E-13

      iter #   5 total cpu time :   112.9 secs   av.it.:  11.3
      thresh= 7.447E-08 alpha_mix =  0.700 |ddv_scf|^2 =  1.079E-14

      iter #   6 total cpu time :   114.1 secs   av.it.:  11.5
      thresh= 1.039E-08 alpha_mix =  0.700 |ddv_scf|^2 =  7.358E-17

     End of self-consistent calculation

     Convergence has been achieved 


     Representation #   4 modes #   5   6

     Self-consistent Calculation

      iter #   1 total cpu time :   115.2 secs   av.it.:   6.1
      thresh= 1.000E-02 alpha_mix =  0.700 |ddv_scf|^2 =  5.515E-08

      iter #   2 total cpu time :   116.7 secs   av.it.:  11.3
      thresh= 2.348E-05 alpha_mix =  0.700 |ddv_scf|^2 =  3.825E-09

      iter #   3 total cpu time :   118.1 secs   av.it.:  11.2
      thresh= 6.184E-06 alpha_mix =  0.700 |ddv_scf|^2 =  5.527E-11

      iter #   4 total cpu time :   120.0 secs   av.it.:  11.3
      thresh= 7.435E-07 alpha_mix =  0.700 |ddv_scf|^2 =  5.544E-13

      iter #   5 total cpu time :   121.3 secs   av.it.:  11.3
      thresh= 7.446E-08 alpha_mix =  0.700 |ddv_scf|^2 =  1.079E-14

      iter #   6 total cpu time :   122.5 secs   av.it.:  11.5
      thresh= 1.039E-08 alpha_mix =  0.700 |ddv_scf|^2 =  7.350E-17

     End of self-consistent calculation

     Convergence has been achieved 
 
     Number of q in the star =    8
     List of q in the star:
          1  -0.333333333   0.333333333  -0.333333333
          2   0.333333333   0.333333333   0.333333333
          3  -0.333333333  -0.333333333  -0.333333333
          4   0.333333333  -0.333333333   0.333333333
          5   0.333333333  -0.333333333  -0.333333333
          6   0.333333333   0.333333333  -0.333333333
          7  -0.333333333  -0.333333333   0.333333333
          8  -0.333333333   0.333333333   0.333333333

     Diagonalizing the dynamical matrix

     q = (   -0.333333333   0.333333333  -0.333333333 ) 

 **************************************************************************
     freq (    1) =       3.043999 [THz] =     101.536889 [cm-1]
     freq (    2) =       3.043999 [THz] =     101.536889 [cm-1]
     freq (    3) =       8.747610 [THz] =     291.788877 [cm-1]
     freq (    4) =      13.857014 [THz] =     462.220241 [cm-1]
     freq (    5) =      14.763275 [THz] =     492.449839 [cm-1]
     freq (    6) =      14.763275 [THz] =     492.449839 [cm-1]
 **************************************************************************

     Mode symmetry, C_3v (3m)   point group:

     freq (   1-   2) =        101.5  [cm-1]   --> E    L_3           
     freq (   3-   3) =        291.8  [cm-1]   --> A_1  L_1           
     freq (   4-   4) =        462.2  [cm-1]   --> A_1  L_1           
     freq (   5-   6) =        492.4  [cm-1]   --> E    L_3           

     Calculation of q =    0.5000000  -0.5000000   0.5000000
 
     Parallelization info
     --------------------
     sticks:   dense  smooth     PW     G-vecs:    dense   smooth      PW
     Min         125     125     42                 2608     2608     501
     Max         126     126     43                 2611     2611     503
     Sum        1003    1003    337                20875    20875    4015
 
     Using Slab Decomposition
 

     Title: 
     default                                                                    


     bravais-lattice index     =            2
     lattice parameter (alat)  =      10.1899  a.u.
     unit-cell volume          =     264.5151 (a.u.)^3
     number of atoms/cell      =            2
     number of atomic types    =            1
     number of electrons       =         8.00
     number of Kohn-Sham states=            4
     kinetic-energy cutoff     =      70.0000  Ry
     charge density cutoff     =     280.0000  Ry
     Exchange-correlation= PW
                           (   1   4   0   0   0   0   0)

     celldm(1)=  10.189905  celldm(2)=   0.000000  celldm(3)=   0.000000
     celldm(4)=   0.000000  celldm(5)=   0.000000  celldm(6)=   0.000000

     crystal axes: (cart. coord. in units of alat)
               a(1) = (  -0.500000   0.000000   0.500000 )  
               a(2) = (   0.000000   0.500000   0.500000 )  
               a(3) = (  -0.500000   0.500000   0.000000 )  

     reciprocal axes: (cart. coord. in units 2 pi/alat)
               b(1) = ( -1.000000 -1.000000  1.000000 )  
               b(2) = (  1.000000  1.000000  1.000000 )  
               b(3) = ( -1.000000  1.000000 -1.000000 )  


     PseudoPot. # 1 for Si read from file:
     ./pseudos/Si.nc.UPF
     MD5 check sum: 9e2d726316af3d4752eea8ab0afbb951
     Pseudo is Norm-conserving + core correction, Zval =  4.0
     Generated using ONCVPSP code by D. R. Hamann
     Using radial grid of 1510 points,  6 beta functions with: 
                l(1) =   0
                l(2) =   0
                l(3) =   1
                l(4) =   1
                l(5) =   2
                l(6) =   2

     atomic species   valence    mass     pseudopotential
        Si             4.00    28.08550     Si( 1.00)

     48 Sym. Ops., with inversion, found



   Cartesian axes

     site n.     atom                  positions (alat units)
         1           Si  tau(   1) = (   0.0000000   0.0000000   0.0000000  )
         2           Si  tau(   2) = (  -0.2500000   0.2500000   0.2500000  )

     number of k points=   182

     Number of k-points >= 100: set verbosity='high' to print them.

     Dense  grid:    20875 G-vectors     FFT dimensions: (  40,  40,  40)

     Estimated max dynamical RAM per process >       2.65 MB

     Estimated total dynamical RAM >     105.95 MB

     The potential is recalculated from file :
     /fastscratch/tsievers/QE_TMP_DIR/_ph0/si_ph_bench_poolsize_8_n_procs_160_0.save/charge-density

     Starting wfcs are    8 atomic wfcs

     Band Structure Calculation
     Davidson diagonalization with overlap

     ethr =  1.25E-10,  avg # of iterations = 12.9

     total cpu time spent up to now is        7.0 secs

     End of band structure calculation

     Number of k-points >= 100: set verbosity='high' to print the bands.

     highest occupied level (ev):     6.1106

     Writing config to output data dir /fastscratch/tsievers/QE_TMP_DIR/_ph0/si_ph_bench_poolsize_8_n_procs_160_0.save/

     default                                                                    

     bravais-lattice index     =            2
     lattice parameter (alat)  =      10.1899  a.u.
     unit-cell volume          =     264.5151 (a.u.)^3
     number of atoms/cell      =            2
     number of atomic types    =            1
     kinetic-energy cut-off    =      70.0000  Ry
     charge density cut-off    =     280.0000  Ry
     convergence threshold     =      1.0E-15
     beta                      =       0.7000
     number of iterations used =            4
     Exchange-correlation= PW
                           (   1   4   0   0   0   0   0)


     celldm(1)=   10.18990  celldm(2)=    0.00000  celldm(3)=    0.00000
     celldm(4)=    0.00000  celldm(5)=    0.00000  celldm(6)=    0.00000

     crystal axes: (cart. coord. in units of alat)
               a(1) = ( -0.5000  0.0000  0.5000 )  
               a(2) = (  0.0000  0.5000  0.5000 )  
               a(3) = ( -0.5000  0.5000  0.0000 )  

     reciprocal axes: (cart. coord. in units 2 pi/alat)
               b(1) = ( -1.0000 -1.0000  1.0000 )  
               b(2) = (  1.0000  1.0000  1.0000 )  
               b(3) = ( -1.0000  1.0000 -1.0000 )  


     Atoms inside the unit cell: 

     Cartesian axes

     site n.  atom      mass           positions (alat units)
        1     Si  28.0855   tau(    1) = (    0.00000    0.00000    0.00000  )
        2     Si  28.0855   tau(    2) = (   -0.25000    0.25000    0.25000  )

     Computing dynamical matrix for 
                    q = (   0.5000000  -0.5000000   0.5000000 )
 
     13 Sym.Ops. (with q -> -q+G )


     G cutoff =  736.4420  (   2611 G-vectors)     FFT grid: ( 40, 40, 40)
     number of k points=   182

     PseudoPot. # 1 for Si read from file:
     ./pseudos/Si.nc.UPF
     MD5 check sum: 9e2d726316af3d4752eea8ab0afbb951
     Pseudo is Norm-conserving + core correction, Zval =  4.0
     Generated using ONCVPSP code by D. R. Hamann
     Using radial grid of 1510 points,  6 beta functions with: 
                l(1) =   0
                l(2) =   0
                l(3) =   1
                l(4) =   1
                l(5) =   2
                l(6) =   2


     Atomic displacements:
     There are    4 irreducible representations

     Representation     1      1 modes -  To be done

     Representation     2      1 modes -  To be done

     Representation     3      2 modes -  To be done

     Representation     4      2 modes -  To be done



     Alpha used in Ewald sum =   2.8000
     PHONON       :   1m49.05s CPU   2m 6.57s WALL



     Representation #   1 mode #   1

     Self-consistent Calculation

      iter #   1 total cpu time :   126.8 secs   av.it.:   5.8
      thresh= 1.000E-02 alpha_mix =  0.700 |ddv_scf|^2 =  3.144E-06

      iter #   2 total cpu time :   127.3 secs   av.it.:   9.9
      thresh= 1.773E-04 alpha_mix =  0.700 |ddv_scf|^2 =  2.900E-06

      iter #   3 total cpu time :   128.1 secs   av.it.:   9.2
      thresh= 1.703E-04 alpha_mix =  0.700 |ddv_scf|^2 =  3.877E-10

      iter #   4 total cpu time :   128.5 secs   av.it.:  10.1
      thresh= 1.969E-06 alpha_mix =  0.700 |ddv_scf|^2 =  6.666E-12

      iter #   5 total cpu time :   128.9 secs   av.it.:   9.8
      thresh= 2.582E-07 alpha_mix =  0.700 |ddv_scf|^2 =  9.566E-14

      iter #   6 total cpu time :   130.0 secs   av.it.:   9.7
      thresh= 3.093E-08 alpha_mix =  0.700 |ddv_scf|^2 =  1.252E-15

      iter #   7 total cpu time :   130.3 secs   av.it.:   9.7
      thresh= 3.539E-09 alpha_mix =  0.700 |ddv_scf|^2 =  4.287E-18

     End of self-consistent calculation

     Convergence has been achieved 


     Representation #   2 mode #   2

     Self-consistent Calculation

      iter #   1 total cpu time :   130.8 secs   av.it.:   6.7
      thresh= 1.000E-02 alpha_mix =  0.700 |ddv_scf|^2 =  4.802E-05

      iter #   2 total cpu time :   131.2 secs   av.it.:  10.0
      thresh= 6.930E-04 alpha_mix =  0.700 |ddv_scf|^2 =  1.569E-04

      iter #   3 total cpu time :   131.7 secs   av.it.:   9.0
      thresh= 1.253E-03 alpha_mix =  0.700 |ddv_scf|^2 =  9.297E-09

      iter #   4 total cpu time :   132.2 secs   av.it.:   9.7
      thresh= 9.642E-06 alpha_mix =  0.700 |ddv_scf|^2 =  1.945E-10

      iter #   5 total cpu time :   132.6 secs   av.it.:  10.3
      thresh= 1.395E-06 alpha_mix =  0.700 |ddv_scf|^2 =  9.630E-12

      iter #   6 total cpu time :   133.1 secs   av.it.:  10.0
      thresh= 3.103E-07 alpha_mix =  0.700 |ddv_scf|^2 =  2.662E-13

      iter #   7 total cpu time :   133.4 secs   av.it.:   9.4
      thresh= 5.159E-08 alpha_mix =  0.700 |ddv_scf|^2 =  7.458E-17

     End of self-consistent calculation

     Convergence has been achieved 


     Representation #   3 modes #   3   4

     Self-consistent Calculation

      iter #   1 total cpu time :   134.0 secs   av.it.:   6.1
      thresh= 1.000E-02 alpha_mix =  0.700 |ddv_scf|^2 =  1.110E-07

      iter #   2 total cpu time :   134.9 secs   av.it.:  11.2
      thresh= 3.331E-05 alpha_mix =  0.700 |ddv_scf|^2 =  9.407E-09

      iter #   3 total cpu time :   136.1 secs   av.it.:  11.1
      thresh= 9.699E-06 alpha_mix =  0.700 |ddv_scf|^2 =  6.299E-11

      iter #   4 total cpu time :   137.3 secs   av.it.:  11.1
      thresh= 7.937E-07 alpha_mix =  0.700 |ddv_scf|^2 =  7.043E-14

      iter #   5 total cpu time :   137.9 secs   av.it.:  11.4
      thresh= 2.654E-08 alpha_mix =  0.700 |ddv_scf|^2 =  9.275E-16

     End of self-consistent calculation

     Convergence has been achieved 


     Representation #   4 modes #   5   6

     Self-consistent Calculation

      iter #   1 total cpu time :   138.7 secs   av.it.:   5.5
      thresh= 1.000E-02 alpha_mix =  0.700 |ddv_scf|^2 =  1.260E-08

      iter #   2 total cpu time :   139.5 secs   av.it.:  11.2
      thresh= 1.122E-05 alpha_mix =  0.700 |ddv_scf|^2 =  3.302E-10

      iter #   3 total cpu time :   141.1 secs   av.it.:  11.2
      thresh= 1.817E-06 alpha_mix =  0.700 |ddv_scf|^2 =  2.030E-11

      iter #   4 total cpu time :   142.1 secs   av.it.:  11.2
      thresh= 4.506E-07 alpha_mix =  0.700 |ddv_scf|^2 =  8.684E-14

      iter #   5 total cpu time :   142.9 secs   av.it.:  11.2
      thresh= 2.947E-08 alpha_mix =  0.700 |ddv_scf|^2 =  1.388E-15

      iter #   6 total cpu time :   143.6 secs   av.it.:  11.2
      thresh= 3.725E-09 alpha_mix =  0.700 |ddv_scf|^2 =  2.934E-18

     End of self-consistent calculation

     Convergence has been achieved 
 
     Number of q in the star =    4
     List of q in the star:
          1   0.500000000  -0.500000000   0.500000000
          2   0.500000000   0.500000000   0.500000000
          3  -0.500000000   0.500000000   0.500000000
          4   0.500000000   0.500000000  -0.500000000

     Diagonalizing the dynamical matrix

     q = (    0.500000000  -0.500000000   0.500000000 ) 

 **************************************************************************
     freq (    1) =       3.158226 [THz] =     105.347069 [cm-1]
     freq (    2) =       3.158226 [THz] =     105.347069 [cm-1]
     freq (    3) =      11.168949 [THz] =     372.556052 [cm-1]
     freq (    4) =      12.390684 [THz] =     413.308718 [cm-1]
     freq (    5) =      14.704236 [THz] =     490.480525 [cm-1]
     freq (    6) =      14.704236 [THz] =     490.480525 [cm-1]
 **************************************************************************

     Calculation of q =    0.0000000   0.3333333   0.0000000
 
     Parallelization info
     --------------------
     sticks:   dense  smooth     PW     G-vecs:    dense   smooth      PW
     Min         125     125     39                 2608     2608     464
     Max         126     126     40                 2611     2611     466
     Sum        1003    1003    313                20875    20875    3719
 
     Using Slab Decomposition
 

     Title: 
     default                                                                    


     bravais-lattice index     =            2
     lattice parameter (alat)  =      10.1899  a.u.
     unit-cell volume          =     264.5151 (a.u.)^3
     number of atoms/cell      =            2
     number of atomic types    =            1
     number of electrons       =         8.00
     number of Kohn-Sham states=            4
     kinetic-energy cutoff     =      70.0000  Ry
     charge density cutoff     =     280.0000  Ry
     Exchange-correlation= PW
                           (   1   4   0   0   0   0   0)

     celldm(1)=  10.189905  celldm(2)=   0.000000  celldm(3)=   0.000000
     celldm(4)=   0.000000  celldm(5)=   0.000000  celldm(6)=   0.000000

     crystal axes: (cart. coord. in units of alat)
               a(1) = (  -0.500000   0.000000   0.500000 )  
               a(2) = (   0.000000   0.500000   0.500000 )  
               a(3) = (  -0.500000   0.500000   0.000000 )  

     reciprocal axes: (cart. coord. in units 2 pi/alat)
               b(1) = ( -1.000000 -1.000000  1.000000 )  
               b(2) = (  1.000000  1.000000  1.000000 )  
               b(3) = ( -1.000000  1.000000 -1.000000 )  


     PseudoPot. # 1 for Si read from file:
     ./pseudos/Si.nc.UPF
     MD5 check sum: 9e2d726316af3d4752eea8ab0afbb951
     Pseudo is Norm-conserving + core correction, Zval =  4.0
     Generated using ONCVPSP code by D. R. Hamann
     Using radial grid of 1510 points,  6 beta functions with: 
                l(1) =   0
                l(2) =   0
                l(3) =   1
                l(4) =   1
                l(5) =   2
                l(6) =   2

     atomic species   valence    mass     pseudopotential
        Si             4.00    28.08550     Si( 1.00)

     48 Sym. Ops., with inversion, found



   Cartesian axes

     site n.     atom                  positions (alat units)
         1           Si  tau(   1) = (   0.0000000   0.0000000   0.0000000  )
         2           Si  tau(   2) = (  -0.2500000   0.2500000   0.2500000  )

     number of k points=   252

     Number of k-points >= 100: set verbosity='high' to print them.

     Dense  grid:    20875 G-vectors     FFT dimensions: (  40,  40,  40)

     Estimated max dynamical RAM per process >       2.62 MB

     Estimated total dynamical RAM >     104.89 MB

     The potential is recalculated from file :
     /fastscratch/tsievers/QE_TMP_DIR/_ph0/si_ph_bench_poolsize_8_n_procs_160_0.save/charge-density

     Starting wfcs are    8 atomic wfcs

     Band Structure Calculation
     Davidson diagonalization with overlap

     ethr =  1.25E-10,  avg # of iterations = 12.8

     total cpu time spent up to now is        9.1 secs

     End of band structure calculation

     Number of k-points >= 100: set verbosity='high' to print the bands.

     highest occupied level (ev):     6.1106

     Writing config to output data dir /fastscratch/tsievers/QE_TMP_DIR/_ph0/si_ph_bench_poolsize_8_n_procs_160_0.save/

     default                                                                    

     bravais-lattice index     =            2
     lattice parameter (alat)  =      10.1899  a.u.
     unit-cell volume          =     264.5151 (a.u.)^3
     number of atoms/cell      =            2
     number of atomic types    =            1
     kinetic-energy cut-off    =      70.0000  Ry
     charge density cut-off    =     280.0000  Ry
     convergence threshold     =      1.0E-15
     beta                      =       0.7000
     number of iterations used =            4
     Exchange-correlation= PW
                           (   1   4   0   0   0   0   0)


     celldm(1)=   10.18990  celldm(2)=    0.00000  celldm(3)=    0.00000
     celldm(4)=    0.00000  celldm(5)=    0.00000  celldm(6)=    0.00000

     crystal axes: (cart. coord. in units of alat)
               a(1) = ( -0.5000  0.0000  0.5000 )  
               a(2) = (  0.0000  0.5000  0.5000 )  
               a(3) = ( -0.5000  0.5000  0.0000 )  

     reciprocal axes: (cart. coord. in units 2 pi/alat)
               b(1) = ( -1.0000 -1.0000  1.0000 )  
               b(2) = (  1.0000  1.0000  1.0000 )  
               b(3) = ( -1.0000  1.0000 -1.0000 )  


     Atoms inside the unit cell: 

     Cartesian axes

     site n.  atom      mass           positions (alat units)
        1     Si  28.0855   tau(    1) = (    0.00000    0.00000    0.00000  )
        2     Si  28.0855   tau(    2) = (   -0.25000    0.25000    0.25000  )

     Computing dynamical matrix for 
                    q = (   0.0000000   0.3333333   0.0000000 )
 
      8 Sym.Ops. (no q -> -q+G )


     G cutoff =  736.4420  (   2611 G-vectors)     FFT grid: ( 40, 40, 40)
     number of k points=   252

     PseudoPot. # 1 for Si read from file:
     ./pseudos/Si.nc.UPF
     MD5 check sum: 9e2d726316af3d4752eea8ab0afbb951
     Pseudo is Norm-conserving + core correction, Zval =  4.0
     Generated using ONCVPSP code by D. R. Hamann
     Using radial grid of 1510 points,  6 beta functions with: 
                l(1) =   0
                l(2) =   0
                l(3) =   1
                l(4) =   1
                l(5) =   2
                l(6) =   2

     Mode symmetry, C_4v (4mm)  point group:


     Atomic displacements:
     There are    4 irreducible representations

     Representation     1      1 modes -  To be done

     Representation     2      1 modes -  To be done

     Representation     3      2 modes -  To be done

     Representation     4      2 modes -  To be done



     Alpha used in Ewald sum =   2.8000
     PHONON       :   2m 4.87s CPU   2m26.41s WALL



     Representation #   1 mode #   1

     Self-consistent Calculation

      iter #   1 total cpu time :   146.8 secs   av.it.:   6.8
      thresh= 1.000E-02 alpha_mix =  0.700 |ddv_scf|^2 =  2.084E-03

      iter #   2 total cpu time :   147.2 secs   av.it.:   9.1
      thresh= 4.565E-03 alpha_mix =  0.700 |ddv_scf|^2 =  6.356E-02

      iter #   3 total cpu time :   147.7 secs   av.it.:   8.1
      thresh= 1.000E-02 alpha_mix =  0.700 |ddv_scf|^2 =  5.830E-08

      iter #   4 total cpu time :   148.2 secs   av.it.:   9.0
      thresh= 2.415E-05 alpha_mix =  0.700 |ddv_scf|^2 =  2.786E-09

      iter #   5 total cpu time :   148.6 secs   av.it.:   8.6
      thresh= 5.278E-06 alpha_mix =  0.700 |ddv_scf|^2 =  9.064E-10

      iter #   6 total cpu time :   149.1 secs   av.it.:   8.1
      thresh= 3.011E-06 alpha_mix =  0.700 |ddv_scf|^2 =  1.234E-12

      iter #   7 total cpu time :   149.6 secs   av.it.:   8.4
      thresh= 1.111E-07 alpha_mix =  0.700 |ddv_scf|^2 =  2.807E-14

      iter #   8 total cpu time :   150.0 secs   av.it.:   8.3
      thresh= 1.675E-08 alpha_mix =  0.700 |ddv_scf|^2 =  3.424E-16

     End of self-consistent calculation

     Convergence has been achieved 


     Representation #   2 mode #   2

     Self-consistent Calculation

      iter #   1 total cpu time :   150.5 secs   av.it.:   5.9
      thresh= 1.000E-02 alpha_mix =  0.700 |ddv_scf|^2 =  3.182E-07

      iter #   2 total cpu time :   151.0 secs   av.it.:  10.4
      thresh= 5.641E-05 alpha_mix =  0.700 |ddv_scf|^2 =  5.146E-08

      iter #   3 total cpu time :   151.5 secs   av.it.:  10.2
      thresh= 2.268E-05 alpha_mix =  0.700 |ddv_scf|^2 =  6.507E-10

      iter #   4 total cpu time :   152.2 secs   av.it.:  10.4
      thresh= 2.551E-06 alpha_mix =  0.700 |ddv_scf|^2 =  2.702E-11

      iter #   5 total cpu time :   152.8 secs   av.it.:  10.3
      thresh= 5.198E-07 alpha_mix =  0.700 |ddv_scf|^2 =  6.155E-14

      iter #   6 total cpu time :   153.2 secs   av.it.:  10.4
      thresh= 2.481E-08 alpha_mix =  0.700 |ddv_scf|^2 =  1.230E-15

      iter #   7 total cpu time :   153.8 secs   av.it.:  10.4
      thresh= 3.507E-09 alpha_mix =  0.700 |ddv_scf|^2 =  2.870E-17

     End of self-consistent calculation

     Convergence has been achieved 


     Representation #   3 modes #   3   4

     Self-consistent Calculation

      iter #   1 total cpu time :   155.1 secs   av.it.:   6.1
      thresh= 1.000E-02 alpha_mix =  0.700 |ddv_scf|^2 =  5.758E-08

      iter #   2 total cpu time :   156.1 secs   av.it.:  11.3
      thresh= 2.400E-05 alpha_mix =  0.700 |ddv_scf|^2 =  5.249E-09

      iter #   3 total cpu time :   157.2 secs   av.it.:  11.1
      thresh= 7.245E-06 alpha_mix =  0.700 |ddv_scf|^2 =  6.119E-11

      iter #   4 total cpu time :   159.0 secs   av.it.:  11.3
      thresh= 7.822E-07 alpha_mix =  0.700 |ddv_scf|^2 =  6.882E-13

      iter #   5 total cpu time :   160.8 secs   av.it.:  11.2
      thresh= 8.296E-08 alpha_mix =  0.700 |ddv_scf|^2 =  1.142E-14

      iter #   6 total cpu time :   161.7 secs   av.it.:  11.5
      thresh= 1.069E-08 alpha_mix =  0.700 |ddv_scf|^2 =  4.656E-17

     End of self-consistent calculation

     Convergence has been achieved 


     Representation #   4 modes #   5   6

     Self-consistent Calculation

      iter #   1 total cpu time :   162.5 secs   av.it.:   6.0
      thresh= 1.000E-02 alpha_mix =  0.700 |ddv_scf|^2 =  7.592E-08

      iter #   2 total cpu time :   163.5 secs   av.it.:  11.2
      thresh= 2.755E-05 alpha_mix =  0.700 |ddv_scf|^2 =  7.159E-09

      iter #   3 total cpu time :   164.5 secs   av.it.:  11.0
      thresh= 8.461E-06 alpha_mix =  0.700 |ddv_scf|^2 =  6.477E-11

      iter #   4 total cpu time :   166.1 secs   av.it.:  11.2
      thresh= 8.048E-07 alpha_mix =  0.700 |ddv_scf|^2 =  4.403E-13

      iter #   5 total cpu time :   167.1 secs   av.it.:  11.1
      thresh= 6.636E-08 alpha_mix =  0.700 |ddv_scf|^2 =  1.046E-14

      iter #   6 total cpu time :   167.9 secs   av.it.:  11.5
      thresh= 1.023E-08 alpha_mix =  0.700 |ddv_scf|^2 =  4.428E-17

     End of self-consistent calculation

     Convergence has been achieved 
 
     Number of q in the star =    6
     List of q in the star:
          1   0.000000000   0.333333333   0.000000000
          2   0.333333333   0.000000000   0.000000000
          3   0.000000000   0.000000000   0.333333333
          4   0.000000000  -0.333333333   0.000000000
          5  -0.333333333   0.000000000   0.000000000
          6   0.000000000   0.000000000  -0.333333333

     Diagonalizing the dynamical matrix

     q = (    0.000000000   0.333333333   0.000000000 ) 

 **************************************************************************
     freq (    1) =       2.948344 [THz] =      98.346185 [cm-1]
     freq (    2) =       2.948344 [THz] =      98.346185 [cm-1]
     freq (    3) =       4.953269 [THz] =     165.223273 [cm-1]
     freq (    4) =      14.670252 [THz] =     489.346939 [cm-1]
     freq (    5) =      14.670252 [THz] =     489.346939 [cm-1]
     freq (    6) =      15.143100 [THz] =     505.119436 [cm-1]
 **************************************************************************

     Mode symmetry, C_4v (4mm)  point group:

     freq (   1-   2) =         98.3  [cm-1]   --> E    G_5 D_5       
     freq (   3-   3) =        165.2  [cm-1]   --> A_1  G_1 D_1       
     freq (   4-   5) =        489.3  [cm-1]   --> E    G_5 D_5       
     freq (   6-   6) =        505.1  [cm-1]   --> B_2  G_4 D_2'      

     Calculation of q =   -0.1666667   0.5000000  -0.1666667
 
     Parallelization info
     --------------------
     sticks:   dense  smooth     PW     G-vecs:    dense   smooth      PW
     Min         125     125     39                 2608     2608     479
     Max         126     126     40                 2611     2611     484
     Sum        1003    1003    313                20875    20875    3839
 
     Using Slab Decomposition
 

     Title: 
     default                                                                    


     bravais-lattice index     =            2
     lattice parameter (alat)  =      10.1899  a.u.
     unit-cell volume          =     264.5151 (a.u.)^3
     number of atoms/cell      =            2
     number of atomic types    =            1
     number of electrons       =         8.00
     number of Kohn-Sham states=            4
     kinetic-energy cutoff     =      70.0000  Ry
     charge density cutoff     =     280.0000  Ry
     Exchange-correlation= PW
                           (   1   4   0   0   0   0   0)

     celldm(1)=  10.189905  celldm(2)=   0.000000  celldm(3)=   0.000000
     celldm(4)=   0.000000  celldm(5)=   0.000000  celldm(6)=   0.000000

     crystal axes: (cart. coord. in units of alat)
               a(1) = (  -0.500000   0.000000   0.500000 )  
               a(2) = (   0.000000   0.500000   0.500000 )  
               a(3) = (  -0.500000   0.500000   0.000000 )  

     reciprocal axes: (cart. coord. in units 2 pi/alat)
               b(1) = ( -1.000000 -1.000000  1.000000 )  
               b(2) = (  1.000000  1.000000  1.000000 )  
               b(3) = ( -1.000000  1.000000 -1.000000 )  


     PseudoPot. # 1 for Si read from file:
     ./pseudos/Si.nc.UPF
     MD5 check sum: 9e2d726316af3d4752eea8ab0afbb951
     Pseudo is Norm-conserving + core correction, Zval =  4.0
     Generated using ONCVPSP code by D. R. Hamann
     Using radial grid of 1510 points,  6 beta functions with: 
                l(1) =   0
                l(2) =   0
                l(3) =   1
                l(4) =   1
                l(5) =   2
                l(6) =   2

     atomic species   valence    mass     pseudopotential
        Si             4.00    28.08550     Si( 1.00)

     48 Sym. Ops., with inversion, found



   Cartesian axes

     site n.     atom                  positions (alat units)
         1           Si  tau(   1) = (   0.0000000   0.0000000   0.0000000  )
         2           Si  tau(   2) = (  -0.2500000   0.2500000   0.2500000  )

     number of k points=   936

     Number of k-points >= 100: set verbosity='high' to print them.

     Dense  grid:    20875 G-vectors     FFT dimensions: (  40,  40,  40)

     Estimated max dynamical RAM per process >       2.63 MB

     Estimated total dynamical RAM >     105.34 MB

     The potential is recalculated from file :
     /fastscratch/tsievers/QE_TMP_DIR/_ph0/si_ph_bench_poolsize_8_n_procs_160_0.save/charge-density

     Starting wfcs are    8 atomic wfcs

     Band Structure Calculation
     Davidson diagonalization with overlap

     ethr =  1.25E-10,  avg # of iterations = 12.8

     total cpu time spent up to now is       15.6 secs

     End of band structure calculation

     Number of k-points >= 100: set verbosity='high' to print the bands.

     highest occupied level (ev):     6.1106

     Writing config to output data dir /fastscratch/tsievers/QE_TMP_DIR/_ph0/si_ph_bench_poolsize_8_n_procs_160_0.save/

     default                                                                    

     bravais-lattice index     =            2
     lattice parameter (alat)  =      10.1899  a.u.
     unit-cell volume          =     264.5151 (a.u.)^3
     number of atoms/cell      =            2
     number of atomic types    =            1
     kinetic-energy cut-off    =      70.0000  Ry
     charge density cut-off    =     280.0000  Ry
     convergence threshold     =      1.0E-15
     beta                      =       0.7000
     number of iterations used =            4
     Exchange-correlation= PW
                           (   1   4   0   0   0   0   0)


     celldm(1)=   10.18990  celldm(2)=    0.00000  celldm(3)=    0.00000
     celldm(4)=    0.00000  celldm(5)=    0.00000  celldm(6)=    0.00000

     crystal axes: (cart. coord. in units of alat)
               a(1) = ( -0.5000  0.0000  0.5000 )  
               a(2) = (  0.0000  0.5000  0.5000 )  
               a(3) = ( -0.5000  0.5000  0.0000 )  

     reciprocal axes: (cart. coord. in units 2 pi/alat)
               b(1) = ( -1.0000 -1.0000  1.0000 )  
               b(2) = (  1.0000  1.0000  1.0000 )  
               b(3) = ( -1.0000  1.0000 -1.0000 )  


     Atoms inside the unit cell: 

     Cartesian axes

     site n.  atom      mass           positions (alat units)
        1     Si  28.0855   tau(    1) = (    0.00000    0.00000    0.00000  )
        2     Si  28.0855   tau(    2) = (   -0.25000    0.25000    0.25000  )

     Computing dynamical matrix for 
                    q = (  -0.1666667   0.5000000  -0.1666667 )
 
      2 Sym.Ops. (no q -> -q+G )


     G cutoff =  736.4420  (   2611 G-vectors)     FFT grid: ( 40, 40, 40)
     number of k points=   936

     PseudoPot. # 1 for Si read from file:
     ./pseudos/Si.nc.UPF
     MD5 check sum: 9e2d726316af3d4752eea8ab0afbb951
     Pseudo is Norm-conserving + core correction, Zval =  4.0
     Generated using ONCVPSP code by D. R. Hamann
     Using radial grid of 1510 points,  6 beta functions with: 
                l(1) =   0
                l(2) =   0
                l(3) =   1
                l(4) =   1
                l(5) =   2
                l(6) =   2

     Mode symmetry, C_s (m)     point group:


     Atomic displacements:
     There are    6 irreducible representations

     Representation     1      1 modes -  To be done

     Representation     2      1 modes -  To be done

     Representation     3      1 modes -  To be done

     Representation     4      1 modes -  To be done

     Representation     5      1 modes -  To be done

     Representation     6      1 modes -  To be done



     Alpha used in Ewald sum =   2.8000
     PHONON       :   2m29.32s CPU   2m57.73s WALL



     Representation #   1 mode #   1

     Self-consistent Calculation

      iter #   1 total cpu time :   178.8 secs   av.it.:   6.7
      thresh= 1.000E-02 alpha_mix =  0.700 |ddv_scf|^2 =  1.192E-04

      iter #   2 total cpu time :   180.2 secs   av.it.:   9.8
      thresh= 1.092E-03 alpha_mix =  0.700 |ddv_scf|^2 =  1.301E-03

      iter #   3 total cpu time :   181.8 secs   av.it.:   8.3
      thresh= 3.606E-03 alpha_mix =  0.700 |ddv_scf|^2 =  1.137E-07

      iter #   4 total cpu time :   183.2 secs   av.it.:  10.3
      thresh= 3.372E-05 alpha_mix =  0.700 |ddv_scf|^2 =  4.976E-09

      iter #   5 total cpu time :   185.2 secs   av.it.:  10.1
      thresh= 7.054E-06 alpha_mix =  0.700 |ddv_scf|^2 =  5.317E-11

      iter #   6 total cpu time :   187.1 secs   av.it.:  10.5
      thresh= 7.292E-07 alpha_mix =  0.700 |ddv_scf|^2 =  6.628E-12

      iter #   7 total cpu time :   188.6 secs   av.it.:  10.3
      thresh= 2.574E-07 alpha_mix =  0.700 |ddv_scf|^2 =  6.789E-13

      iter #   8 total cpu time :   190.2 secs   av.it.:  10.0
      thresh= 8.240E-08 alpha_mix =  0.700 |ddv_scf|^2 =  5.888E-12

      iter #   9 total cpu time :   191.6 secs   av.it.:   8.5
      thresh= 2.427E-07 alpha_mix =  0.700 |ddv_scf|^2 =  7.335E-14

      iter #  10 total cpu time :   193.0 secs   av.it.:   8.8
      thresh= 2.708E-08 alpha_mix =  0.700 |ddv_scf|^2 =  8.997E-16

     End of self-consistent calculation

     Convergence has been achieved 


     Representation #   2 mode #   2

     Self-consistent Calculation

      iter #   1 total cpu time :   194.1 secs   av.it.:   6.5
      thresh= 1.000E-02 alpha_mix =  0.700 |ddv_scf|^2 =  7.780E-05

      iter #   2 total cpu time :   195.5 secs   av.it.:   9.9
      thresh= 8.820E-04 alpha_mix =  0.700 |ddv_scf|^2 =  8.352E-04

      iter #   3 total cpu time :   197.1 secs   av.it.:   8.3
      thresh= 2.890E-03 alpha_mix =  0.700 |ddv_scf|^2 =  7.659E-08

      iter #   4 total cpu time :   198.7 secs   av.it.:  10.3
      thresh= 2.767E-05 alpha_mix =  0.700 |ddv_scf|^2 =  3.952E-09

      iter #   5 total cpu time :   200.2 secs   av.it.:  10.1
      thresh= 6.287E-06 alpha_mix =  0.700 |ddv_scf|^2 =  9.341E-11

      iter #   6 total cpu time :   201.6 secs   av.it.:  10.1
      thresh= 9.665E-07 alpha_mix =  0.700 |ddv_scf|^2 =  6.370E-12

      iter #   7 total cpu time :   203.0 secs   av.it.:  10.3
      thresh= 2.524E-07 alpha_mix =  0.700 |ddv_scf|^2 =  3.354E-12

      iter #   8 total cpu time :   204.5 secs   av.it.:   9.4
      thresh= 1.831E-07 alpha_mix =  0.700 |ddv_scf|^2 =  7.088E-12

      iter #   9 total cpu time :   206.1 secs   av.it.:   8.8
      thresh= 2.662E-07 alpha_mix =  0.700 |ddv_scf|^2 =  2.959E-13

      iter #  10 total cpu time :   207.4 secs   av.it.:   9.2
      thresh= 5.439E-08 alpha_mix =  0.700 |ddv_scf|^2 =  6.447E-15

      iter #  11 total cpu time :   208.7 secs   av.it.:  10.0
      thresh= 8.030E-09 alpha_mix =  0.700 |ddv_scf|^2 =  3.783E-16

     End of self-consistent calculation

     Convergence has been achieved 


     Representation #   3 mode #   3

     Self-consistent Calculation

      iter #   1 total cpu time :   209.9 secs   av.it.:   6.4
      thresh= 1.000E-02 alpha_mix =  0.700 |ddv_scf|^2 =  5.668E-05

      iter #   2 total cpu time :   212.7 secs   av.it.:   9.9
      thresh= 7.529E-04 alpha_mix =  0.700 |ddv_scf|^2 =  6.226E-04

      iter #   3 total cpu time :   213.9 secs   av.it.:   8.3
      thresh= 2.495E-03 alpha_mix =  0.700 |ddv_scf|^2 =  8.761E-08

      iter #   4 total cpu time :   215.9 secs   av.it.:  10.2
      thresh= 2.960E-05 alpha_mix =  0.700 |ddv_scf|^2 =  2.884E-09

      iter #   5 total cpu time :   218.2 secs   av.it.:  10.1
      thresh= 5.370E-06 alpha_mix =  0.700 |ddv_scf|^2 =  8.879E-11

      iter #   6 total cpu time :   219.6 secs   av.it.:  10.4
      thresh= 9.423E-07 alpha_mix =  0.700 |ddv_scf|^2 =  3.577E-12

      iter #   7 total cpu time :   221.0 secs   av.it.:  10.6
      thresh= 1.891E-07 alpha_mix =  0.700 |ddv_scf|^2 =  1.212E-12

      iter #   8 total cpu time :   223.8 secs   av.it.:   9.2
      thresh= 1.101E-07 alpha_mix =  0.700 |ddv_scf|^2 =  1.666E-12

      iter #   9 total cpu time :   225.9 secs   av.it.:   9.0
      thresh= 1.291E-07 alpha_mix =  0.700 |ddv_scf|^2 =  6.760E-13

      iter #  10 total cpu time :   227.2 secs   av.it.:   8.7
      thresh= 8.222E-08 alpha_mix =  0.700 |ddv_scf|^2 =  1.411E-15

      iter #  11 total cpu time :   228.7 secs   av.it.:  10.1
      thresh= 3.756E-09 alpha_mix =  0.700 |ddv_scf|^2 =  1.186E-16

     End of self-consistent calculation

     Convergence has been achieved 


     Representation #   4 mode #   4

     Self-consistent Calculation

      iter #   1 total cpu time :   230.9 secs   av.it.:   6.2
      thresh= 1.000E-02 alpha_mix =  0.700 |ddv_scf|^2 =  1.528E-05

      iter #   2 total cpu time :   232.3 secs   av.it.:  10.0
      thresh= 3.909E-04 alpha_mix =  0.700 |ddv_scf|^2 =  1.575E-04

      iter #   3 total cpu time :   233.7 secs   av.it.:   8.3
      thresh= 1.255E-03 alpha_mix =  0.700 |ddv_scf|^2 =  6.505E-08

      iter #   4 total cpu time :   235.2 secs   av.it.:  10.2
      thresh= 2.550E-05 alpha_mix =  0.700 |ddv_scf|^2 =  1.660E-09

      iter #   5 total cpu time :   236.7 secs   av.it.:  10.2
      thresh= 4.075E-06 alpha_mix =  0.700 |ddv_scf|^2 =  8.266E-11

      iter #   6 total cpu time :   238.3 secs   av.it.:  10.5
      thresh= 9.092E-07 alpha_mix =  0.700 |ddv_scf|^2 =  7.224E-12

      iter #   7 total cpu time :   239.8 secs   av.it.:  10.2
      thresh= 2.688E-07 alpha_mix =  0.700 |ddv_scf|^2 =  6.258E-13

      iter #   8 total cpu time :   242.1 secs   av.it.:  10.0
      thresh= 7.911E-08 alpha_mix =  0.700 |ddv_scf|^2 =  3.539E-12

      iter #   9 total cpu time :   253.3 secs   av.it.:   8.4
      thresh= 1.881E-07 alpha_mix =  0.700 |ddv_scf|^2 =  4.467E-14

      iter #  10 total cpu time :   256.8 secs   av.it.:   9.5
      thresh= 2.113E-08 alpha_mix =  0.700 |ddv_scf|^2 =  1.206E-14

      iter #  11 total cpu time :   258.1 secs   av.it.:   9.3
      thresh= 1.098E-08 alpha_mix =  0.700 |ddv_scf|^2 =  1.400E-16

     End of self-consistent calculation

     Convergence has been achieved 


     Representation #   5 mode #   5

     Self-consistent Calculation

      iter #   1 total cpu time :   259.2 secs   av.it.:   6.0
      thresh= 1.000E-02 alpha_mix =  0.700 |ddv_scf|^2 =  3.839E-07

      iter #   2 total cpu time :   260.7 secs   av.it.:  10.4
      thresh= 6.196E-05 alpha_mix =  0.700 |ddv_scf|^2 =  5.269E-08

      iter #   3 total cpu time :   262.1 secs   av.it.:  10.1
      thresh= 2.295E-05 alpha_mix =  0.700 |ddv_scf|^2 =  2.836E-10

      iter #   4 total cpu time :   263.6 secs   av.it.:  10.3
      thresh= 1.684E-06 alpha_mix =  0.700 |ddv_scf|^2 =  1.615E-12

      iter #   5 total cpu time :   265.0 secs   av.it.:  10.3
      thresh= 1.271E-07 alpha_mix =  0.700 |ddv_scf|^2 =  3.400E-14

      iter #   6 total cpu time :   266.4 secs   av.it.:  10.6
      thresh= 1.844E-08 alpha_mix =  0.700 |ddv_scf|^2 =  2.086E-16

     End of self-consistent calculation

     Convergence has been achieved 


     Representation #   6 mode #   6

     Self-consistent Calculation

      iter #   1 total cpu time :   267.5 secs   av.it.:   6.0
      thresh= 1.000E-02 alpha_mix =  0.700 |ddv_scf|^2 =  3.839E-07

      iter #   2 total cpu time :   269.0 secs   av.it.:  10.4
      thresh= 6.196E-05 alpha_mix =  0.700 |ddv_scf|^2 =  5.269E-08

      iter #   3 total cpu time :   270.4 secs   av.it.:  10.1
      thresh= 2.295E-05 alpha_mix =  0.700 |ddv_scf|^2 =  2.836E-10

      iter #   4 total cpu time :   272.7 secs   av.it.:  10.3
      thresh= 1.684E-06 alpha_mix =  0.700 |ddv_scf|^2 =  1.614E-12

      iter #   5 total cpu time :   274.8 secs   av.it.:  10.3
      thresh= 1.271E-07 alpha_mix =  0.700 |ddv_scf|^2 =  3.399E-14

      iter #   6 total cpu time :   276.2 secs   av.it.:  10.6
      thresh= 1.844E-08 alpha_mix =  0.700 |ddv_scf|^2 =  2.086E-16

     End of self-consistent calculation

     Convergence has been achieved 
 
     Number of q in the star =   24
     List of q in the star:
          1  -0.166666667   0.500000000  -0.166666667
          2   0.166666667   0.500000000   0.166666667
          3  -0.166666667   0.500000000   0.166666667
          4   0.166666667   0.500000000  -0.166666667
          5   0.500000000  -0.166666667   0.166666667
          6   0.166666667  -0.166666667   0.500000000
          7  -0.166666667  -0.500000000  -0.166666667
          8   0.166666667  -0.500000000  -0.166666667
          9  -0.166666667  -0.500000000   0.166666667
         10   0.500000000  -0.166666667  -0.166666667
         11  -0.500000000  -0.166666667   0.166666667
         12   0.500000000   0.166666667   0.166666667
         13  -0.166666667   0.166666667  -0.500000000
         14  -0.166666667  -0.166666667   0.500000000
         15   0.166666667   0.166666667   0.500000000
         16   0.166666667  -0.166666667  -0.500000000
         17  -0.500000000   0.166666667  -0.166666667
         18  -0.500000000  -0.166666667  -0.166666667
         19   0.166666667  -0.500000000   0.166666667
         20   0.500000000   0.166666667  -0.166666667
         21   0.166666667   0.166666667  -0.500000000
         22  -0.166666667  -0.166666667  -0.500000000
         23  -0.500000000   0.166666667   0.166666667
         24  -0.166666667   0.166666667   0.500000000

     Diagonalizing the dynamical matrix

     q = (   -0.166666667   0.500000000  -0.166666667 ) 

 **************************************************************************
     freq (    1) =       3.594073 [THz] =     119.885387 [cm-1]
     freq (    2) =       4.477754 [THz] =     149.361783 [cm-1]
     freq (    3) =       7.460226 [THz] =     248.846349 [cm-1]
     freq (    4) =      13.865395 [THz] =     462.499800 [cm-1]
     freq (    5) =      14.341200 [THz] =     478.370933 [cm-1]
     freq (    6) =      14.653508 [THz] =     488.788416 [cm-1]
 **************************************************************************

     Mode symmetry, C_s (m)     point group:

     freq (   1-   1) =        119.9  [cm-1]   --> A''                
     freq (   2-   2) =        149.4  [cm-1]   --> A'                 
     freq (   3-   3) =        248.8  [cm-1]   --> A'                 
     freq (   4-   4) =        462.5  [cm-1]   --> A'                 
     freq (   5-   5) =        478.4  [cm-1]   --> A''                
     freq (   6-   6) =        488.8  [cm-1]   --> A'                 
 
     init_run     :      0.12s CPU      0.15s WALL (       5 calls)
     electrons    :     13.75s CPU     14.08s WALL (       5 calls)

     Called by init_run:
     wfcinit      :      0.00s CPU      0.01s WALL (       5 calls)
     potinit      :      0.01s CPU      0.01s WALL (       5 calls)
     hinit0       :      0.05s CPU      0.05s WALL (       5 calls)

     Called by electrons:
     c_bands      :     13.75s CPU     14.08s WALL (       5 calls)
     v_of_rho     :      0.00s CPU      0.01s WALL (       6 calls)

     Called by c_bands:
     init_us_2    :      1.32s CPU      1.38s WALL (   11957 calls)
     init_us_2:cp :      1.29s CPU      1.36s WALL (   11957 calls)
     cegterg      :      9.44s CPU      9.70s WALL (     426 calls)

     Called by *egterg:
     cdiaghg      :      3.72s CPU      3.81s WALL (    6140 calls)
     h_psi        :     91.11s CPU     95.16s WALL (  129923 calls)
     g_psi        :      0.05s CPU      0.05s WALL (    5714 calls)

     Called by h_psi:
     h_psi:calbec :      6.98s CPU      7.29s WALL (  129923 calls)
     vloc_psi     :     77.70s CPU     81.16s WALL (  129923 calls)
     add_vuspsi   :      5.23s CPU      5.51s WALL (  129923 calls)

     General routines
     calbec       :     12.53s CPU     13.17s WALL (  260744 calls)
     fft          :      0.25s CPU      0.28s WALL (    1413 calls)
     ffts         :      0.42s CPU      0.44s WALL (    1494 calls)
     fftw         :     83.61s CPU     87.41s WALL ( 1085824 calls)
     davcio       :      0.74s CPU      2.49s WALL (   54681 calls)
 
     Parallel routines
 
     PHONON       :   3m48.98s CPU   4m36.95s WALL

     INITIALIZATION: 
     phq_setup    :      0.02s CPU      0.10s WALL (       6 calls)
     phq_init     :      0.92s CPU      0.94s WALL (       6 calls)
 
     phq_init     :      0.92s CPU      0.94s WALL (       6 calls)
     set_drhoc    :      0.44s CPU      0.44s WALL (      18 calls)
     init_vloc    :      0.01s CPU      0.01s WALL (       6 calls)
     init_us_1    :      0.02s CPU      0.02s WALL (       6 calls)
     init_us_2    :      1.32s CPU      1.38s WALL (   11957 calls)
 
     DYNAMICAL MATRIX:
     dynmat0      :      0.51s CPU      0.53s WALL (       6 calls)
     phqscf       :    179.16s CPU    218.70s WALL (       6 calls)
     dynmatrix    :      1.44s CPU      1.47s WALL (       6 calls)
 
     phqscf       :    179.16s CPU    218.70s WALL (       6 calls)
     solve_linter :    178.59s CPU    217.13s WALL (      24 calls)
     drhodv       :      0.54s CPU      0.55s WALL (      24 calls)
 
     dynmat0      :      0.51s CPU      0.53s WALL (       6 calls)
     dynmat_us    :      0.19s CPU      0.20s WALL (       6 calls)
     d2ionq       :      0.00s CPU      0.00s WALL (       6 calls)
     dynmatcc     :      0.29s CPU      0.29s WALL (       6 calls)
 
     dynmat_us    :      0.19s CPU      0.20s WALL (       6 calls)
 
     phqscf       :    179.16s CPU    218.70s WALL (       6 calls)
     solve_linter :    178.59s CPU    217.13s WALL (      24 calls)
 
     solve_linter :    178.59s CPU    217.13s WALL (      24 calls)
     dvqpsi_us    :      1.67s CPU      1.76s WALL (    1350 calls)
     sth_kernel   :    133.23s CPU    139.92s WALL (     190 calls)
     apply_dpot_b :      6.78s CPU      7.13s WALL (    9210 calls)
     ortho        :      0.35s CPU      0.37s WALL (   10560 calls)
     cgsolve      :     99.62s CPU    104.17s WALL (   10560 calls)
     incdrhoscf   :      8.00s CPU      8.36s WALL (   10542 calls)
     dv_of_drho   :      0.13s CPU      0.14s WALL (     267 calls)
     mix_pot      :      2.33s CPU     24.90s WALL (     190 calls)
     psymdvscf    :      4.64s CPU      4.67s WALL (     185 calls)
 
     dvqpsi_us    :      1.67s CPU      1.76s WALL (    1350 calls)
     dvqpsi_us_on :      0.26s CPU      0.28s WALL (    1350 calls)
 
     cgsolve      :     99.62s CPU    104.17s WALL (   10560 calls)
     ch_psi       :     97.11s CPU    101.51s WALL (  123357 calls)
 
     ch_psi       :     97.11s CPU    101.51s WALL (  123357 calls)
     h_psi        :     91.11s CPU     95.16s WALL (  129923 calls)
     last         :      9.51s CPU      9.96s WALL (  123357 calls)
 
     h_psi        :     91.11s CPU     95.16s WALL (  129923 calls)
     add_vuspsi   :      5.23s CPU      5.51s WALL (  129923 calls)
 
     incdrhoscf   :      8.00s CPU      8.36s WALL (   10542 calls)
 
 
      General routines
     calbec       :     12.53s CPU     13.17s WALL (  260744 calls)
     fft          :      0.25s CPU      0.28s WALL (    1413 calls)
     ffts         :      0.42s CPU      0.44s WALL (    1494 calls)
     fftw         :     83.61s CPU     87.41s WALL ( 1085824 calls)
     davcio       :      0.74s CPU      2.49s WALL (   54681 calls)
     write_rec    :      1.00s CPU     12.07s WALL (     214 calls)
 
 
     PHONON       :   3m48.98s CPU   4m36.95s WALL

 
   This run was terminated on:   8:22:50  18May2022            

=------------------------------------------------------------------------------=
   JOB DONE.
=------------------------------------------------------------------------------=
real 1624.94
user 31587.82
sys 122.64
