Module for intel-oneAPI 2021.4 loaded.
 
:: initializing oneAPI environment ...
   2715822: BASH_VERSION = 4.4.20(1)-release
:: advisor -- latest
:: ccl -- latest
:: clck -- latest
:: compiler -- latest
:: dal -- latest
:: debugger -- latest
:: dev-utilities -- latest
:: dnnl -- latest
:: dpcpp-ct -- latest
:: dpl -- latest
:: inspector -- latest
:: intelpython -- latest
:: ipp -- latest
:: ippcp -- latest
:: ipp -- latest
:: itac -- latest
:: LPOT -- latest
:: mkl -- latest
:: modelzoo -- latest
:: mpi -- latest
:: pytorch -- latest
:: tbb -- latest
:: tensorflow -- latest
:: vpl -- latest
:: vtune -- latest
:: oneAPI environment initialized ::
 

     Program PWSCF v.7.0 starts on 17May2022 at 18:35:11 

     This program is part of the open-source Quantum ESPRESSO suite
     for quantum simulation of materials; please cite
         "P. Giannozzi et al., J. Phys.:Condens. Matter 21 395502 (2009);
         "P. Giannozzi et al., J. Phys.:Condens. Matter 29 465901 (2017);
         "P. Giannozzi et al., J. Chem. Phys. 152 154105 (2020);
          URL http://www.quantum-espresso.org", 
     in publications or presentations arising from this work. More details at
     http://www.quantum-espresso.org/quote

     Parallel version (MPI), running on   128 processors

     MPI processes distributed on     7 nodes
     K-points division:     npool     =      16
     R & G space division:  proc/nbgrp/npool/nimage =       8
     41274 MiB available memory on the printing compute node when the environment starts
 
     Reading input from in_files/si_ph_bench_poolsize_8_n_procs_128_0.scf

     Current dimensions of program PWSCF are:
     Max number of different atomic species (ntypx) = 10
     Max number of k-points (npk) =  40000
     Max angular momentum in pseudopotentials (lmaxx) =  4

     Subspace diagonalization in iterative solution of the eigenvalue problem:
     one sub-group per band group will be used
     scalapack distributed-memory algorithm (size of sub-group:  2*  2 procs)

 
     Parallelization info
     --------------------
     sticks:   dense  smooth     PW     G-vecs:    dense   smooth      PW
     Min         125     125     37                 2608     2608     433
     Max         126     126     38                 2611     2611     436
     Sum        1003    1003    301                20875    20875    3479
 
     Using Slab Decomposition
 


     bravais-lattice index     =            2
     lattice parameter (alat)  =      10.1899  a.u.
     unit-cell volume          =     264.5151 (a.u.)^3
     number of atoms/cell      =            2
     number of atomic types    =            1
     number of electrons       =         8.00
     number of Kohn-Sham states=            4
     kinetic-energy cutoff     =      70.0000  Ry
     charge density cutoff     =     280.0000  Ry
     scf convergence threshold =      1.0E-10
     mixing beta               =       0.7000
     number of iterations used =            8  plain     mixing
     Exchange-correlation= SLA  PW   NOGX NOGC
                           (   1   4   0   0   0   0   0)

     celldm(1)=  10.189905  celldm(2)=   0.000000  celldm(3)=   0.000000
     celldm(4)=   0.000000  celldm(5)=   0.000000  celldm(6)=   0.000000

     crystal axes: (cart. coord. in units of alat)
               a(1) = (  -0.500000   0.000000   0.500000 )  
               a(2) = (   0.000000   0.500000   0.500000 )  
               a(3) = (  -0.500000   0.500000   0.000000 )  

     reciprocal axes: (cart. coord. in units 2 pi/alat)
               b(1) = ( -1.000000 -1.000000  1.000000 )  
               b(2) = (  1.000000  1.000000  1.000000 )  
               b(3) = ( -1.000000  1.000000 -1.000000 )  


     PseudoPot. # 1 for Si read from file:
     ./pseudos/Si.nc.UPF
     MD5 check sum: 9e2d726316af3d4752eea8ab0afbb951
     Pseudo is Norm-conserving + core correction, Zval =  4.0
     Generated using ONCVPSP code by D. R. Hamann
     Using radial grid of 1510 points,  6 beta functions with: 
                l(1) =   0
                l(2) =   0
                l(3) =   1
                l(4) =   1
                l(5) =   2
                l(6) =   2

     atomic species   valence    mass     pseudopotential
        Si             4.00    28.08550     Si( 1.00)

     48 Sym. Ops., with inversion, found (24 have fractional translation)



   Cartesian axes

     site n.     atom                  positions (alat units)
         1           Si  tau(   1) = (   0.0000000   0.0000000   0.0000000  )
         2           Si  tau(   2) = (  -0.2500000   0.2500000   0.2500000  )

     number of k points=    28
                       cart. coord. in units 2pi/alat
        k(    1) = (  -0.0833333   0.0833333   0.0833333), wk =   0.0185185
        k(    2) = (  -0.2500000   0.2500000  -0.0833333), wk =   0.0555556
        k(    3) = (  -0.4166667   0.4166667  -0.2500000), wk =   0.0555556
        k(    4) = (   0.4166667  -0.4166667   0.5833333), wk =   0.0555556
        k(    5) = (   0.2500000  -0.2500000   0.4166667), wk =   0.0555556
        k(    6) = (   0.0833333  -0.0833333   0.2500000), wk =   0.0555556
        k(    7) = (  -0.0833333   0.4166667   0.0833333), wk =   0.0555556
        k(    8) = (  -0.2500000   0.5833333  -0.0833333), wk =   0.1111111
        k(    9) = (   0.5833333  -0.2500000   0.7500000), wk =   0.1111111
        k(   10) = (   0.4166667  -0.0833333   0.5833333), wk =   0.1111111
        k(   11) = (   0.2500000   0.0833333   0.4166667), wk =   0.1111111
        k(   12) = (  -0.0833333   0.7500000   0.0833333), wk =   0.0555556
        k(   13) = (   0.7500000  -0.0833333   0.9166667), wk =   0.1111111
        k(   14) = (   0.5833333   0.0833333   0.7500000), wk =   0.1111111
        k(   15) = (   0.4166667   0.2500000   0.5833333), wk =   0.1111111
        k(   16) = (  -0.0833333  -0.9166667   0.0833333), wk =   0.0555556
        k(   17) = (  -0.2500000  -0.7500000  -0.0833333), wk =   0.1111111
        k(   18) = (  -0.0833333  -0.5833333   0.0833333), wk =   0.0555556
        k(   19) = (  -0.2500000   0.2500000   0.2500000), wk =   0.0185185
        k(   20) = (  -0.4166667   0.4166667   0.0833333), wk =   0.0555556
        k(   21) = (   0.4166667  -0.4166667   0.9166667), wk =   0.0555556
        k(   22) = (   0.2500000  -0.2500000   0.7500000), wk =   0.0555556
        k(   23) = (  -0.2500000   0.5833333   0.2500000), wk =   0.0555556
        k(   24) = (   0.5833333  -0.2500000   1.0833333), wk =   0.1111111
        k(   25) = (   0.4166667  -0.0833333   0.9166667), wk =   0.1111111
        k(   26) = (  -0.2500000  -1.0833333   0.2500000), wk =   0.0555556
        k(   27) = (  -0.4166667   0.4166667   0.4166667), wk =   0.0185185
        k(   28) = (   0.4166667  -0.4166667   1.2500000), wk =   0.0555556

     Dense  grid:    20875 G-vectors     FFT dimensions: (  40,  40,  40)

     Estimated max dynamical RAM per process >       3.30 MB

     Estimated total dynamical RAM >     345.99 MB

     Initial potential from superposition of free atoms

     starting charge       7.9989, renormalised to       8.0000
     Starting wfcs are    8 randomized atomic wfcs

     total cpu time spent up to now is        1.2 secs

     Self-consistent Calculation

     iteration #  1     ecut=    70.00 Ry     beta= 0.70
     Davidson diagonalization with overlap
     ethr =  1.00E-02,  avg # of iterations =  2.0

     Threshold (ethr) on eigenvalues was too large:
     Diagonalizing with lowered threshold

     Davidson diagonalization with overlap
     ethr =  6.12E-04,  avg # of iterations =  2.0

     total cpu time spent up to now is        1.2 secs

     total energy              =     -17.04762244 Ry
     estimated scf accuracy    <       0.05799287 Ry

     iteration #  2     ecut=    70.00 Ry     beta= 0.70
     Davidson diagonalization with overlap
     ethr =  7.25E-04,  avg # of iterations =  1.0

     total cpu time spent up to now is        1.2 secs

     total energy              =     -17.04995621 Ry
     estimated scf accuracy    <       0.00249823 Ry

     iteration #  3     ecut=    70.00 Ry     beta= 0.70
     Davidson diagonalization with overlap
     ethr =  3.12E-05,  avg # of iterations =  2.9

     total cpu time spent up to now is        1.3 secs

     total energy              =     -17.05082678 Ry
     estimated scf accuracy    <       0.00009484 Ry

     iteration #  4     ecut=    70.00 Ry     beta= 0.70
     Davidson diagonalization with overlap
     ethr =  1.19E-06,  avg # of iterations =  4.3

     total cpu time spent up to now is        1.3 secs

     total energy              =     -17.05089796 Ry
     estimated scf accuracy    <       0.00000255 Ry

     iteration #  5     ecut=    70.00 Ry     beta= 0.70
     Davidson diagonalization with overlap
     ethr =  3.19E-08,  avg # of iterations =  4.8

     total cpu time spent up to now is        1.3 secs

     total energy              =     -17.05090100 Ry
     estimated scf accuracy    <       0.00000015 Ry

     iteration #  6     ecut=    70.00 Ry     beta= 0.70
     Davidson diagonalization with overlap
     ethr =  1.89E-09,  avg # of iterations =  3.5

     total cpu time spent up to now is        1.3 secs

     total energy              =     -17.05090106 Ry
     estimated scf accuracy    <       0.00000002 Ry

     iteration #  7     ecut=    70.00 Ry     beta= 0.70
     Davidson diagonalization with overlap
     ethr =  2.15E-10,  avg # of iterations =  2.9

     total cpu time spent up to now is        1.4 secs

     End of self-consistent calculation

          k =-0.0833 0.0833 0.0833 (  2667 PWs)   bands (ev):

    -5.7561   5.3866   6.1106   6.1106

          k =-0.2500 0.2500-0.0833 (  2621 PWs)   bands (ev):

    -5.2692   3.2787   4.8359   5.9020

          k =-0.4167 0.4167-0.2500 (  2618 PWs)   bands (ev):

    -4.1491   0.4558   4.3704   5.2525

          k = 0.4167-0.4167 0.5833 (  2604 PWs)   bands (ev):

    -3.4238  -0.7235   4.4440   4.8612

          k = 0.2500-0.2500 0.4167 (  2618 PWs)   bands (ev):

    -4.5725   1.3222   4.9163   4.9543

          k = 0.0833-0.0833 0.2500 (  2643 PWs)   bands (ev):

    -5.5104   4.3092   5.4447   5.6431

          k =-0.0833 0.4167 0.0833 (  2627 PWs)   bands (ev):

    -5.0231   3.1094   4.6844   4.6977

          k =-0.2500 0.5833-0.0833 (  2613 PWs)   bands (ev):

    -4.0918   1.2428   3.3199   4.3008

          k = 0.5833-0.2500 0.7500 (  2616 PWs)   bands (ev):

    -2.9383  -0.5645   2.7090   4.0652

          k = 0.4167-0.0833 0.5833 (  2617 PWs)   bands (ev):

    -3.6856   0.5301   2.6549   4.5685

          k = 0.2500 0.0833 0.4167 (  2624 PWs)   bands (ev):

    -4.7922   2.2460   4.0374   5.2604

          k =-0.0833 0.7500 0.0833 (  2617 PWs)   bands (ev):

    -3.3664   0.4197   3.2861   3.6484

          k = 0.7500-0.0833 0.9167 (  2608 PWs)   bands (ev):

    -2.1400  -0.9430   2.4039   3.2177

          k = 0.5833 0.0833 0.7500 (  2608 PWs)   bands (ev):

    -2.5099  -0.6178   1.9049   3.7798

          k = 0.4167 0.2500 0.5833 (  2622 PWs)   bands (ev):

    -3.5664  -0.1967   3.6417   4.6731

          k =-0.0833-0.9167 0.0833 (  2604 PWs)   bands (ev):

    -2.2385  -0.9535   3.0091   3.4291

          k =-0.2500-0.7500-0.0833 (  2615 PWs)   bands (ev):

    -3.1914   0.1893   2.7413   3.5675

          k =-0.0833-0.5833 0.0833 (  2620 PWs)   bands (ev):

    -4.3033   1.8032   3.8480   4.0788

          k =-0.2500 0.2500 0.2500 (  2632 PWs)   bands (ev):

    -5.0343   2.2731   5.4857   5.4857

          k =-0.4167 0.4167 0.0833 (  2620 PWs)   bands (ev):

    -4.3392   1.3430   3.2814   5.3165

          k = 0.4167-0.4167 0.9167 (  2613 PWs)   bands (ev):

    -3.1274  -0.1140   2.1362   4.5076

          k = 0.2500-0.2500 0.7500 (  2618 PWs)   bands (ev):

    -3.0761  -0.1941   2.6355   4.0115

          k =-0.2500 0.5833 0.2500 (  2613 PWs)   bands (ev):

    -3.9042   0.5133   3.7736   4.3933

          k = 0.5833-0.2500 1.0833 (  2619 PWs)   bands (ev):

    -2.8765  -0.2149   2.2381   3.5572

          k = 0.4167-0.0833 0.9167 (  2613 PWs)   bands (ev):

    -2.0245  -0.9506   2.0592   2.8637

          k =-0.2500-1.0833 0.2500 (  2605 PWs)   bands (ev):

    -2.2385  -0.8648   1.9290   3.8127

          k =-0.4167 0.4167 0.4167 (  2602 PWs)   bands (ev):

    -3.8074  -0.3119   5.0941   5.0941

          k = 0.4167-0.4167 1.2500 (  2605 PWs)   bands (ev):

    -3.1840  -0.6106   3.2018   4.6388

     highest occupied level (ev):     6.1106

!    total energy              =     -17.05090107 Ry
     estimated scf accuracy    <          8.1E-11 Ry

     The total energy is the sum of the following terms:
     one-electron contribution =       5.01080588 Ry
     hartree contribution      =       1.07710484 Ry
     xc contribution           =      -6.22231051 Ry
     ewald contribution        =     -16.91650128 Ry

     convergence has been achieved in   7 iterations

     Forces acting on atoms (cartesian axes, Ry/au):

     atom    1 type  1   force =     0.00000000    0.00000000    0.00000000
     atom    2 type  1   force =    -0.00000000   -0.00000000   -0.00000000

     Total force =     0.000000     Total SCF correction =     0.000000

     Writing all to output data dir /fastscratch/tsievers/QE_TMP_DIR/si_ph_bench_poolsize_8_n_procs_128_0.save/
 
     init_run     :      0.05s CPU      0.08s WALL (       1 calls)
     electrons    :      0.20s CPU      0.29s WALL (       1 calls)
     forces       :      0.01s CPU      0.01s WALL (       1 calls)

     Called by init_run:
     wfcinit      :      0.01s CPU      0.01s WALL (       1 calls)
     potinit      :      0.01s CPU      0.01s WALL (       1 calls)
     hinit0       :      0.01s CPU      0.04s WALL (       1 calls)

     Called by electrons:
     c_bands      :      0.15s CPU      0.16s WALL (       8 calls)
     sum_band     :      0.02s CPU      0.02s WALL (       8 calls)
     v_of_rho     :      0.01s CPU      0.01s WALL (       8 calls)
     mix_rho      :      0.00s CPU      0.00s WALL (       8 calls)

     Called by c_bands:
     init_us_2    :      0.00s CPU      0.00s WALL (      36 calls)
     init_us_2:cp :      0.00s CPU      0.00s WALL (      36 calls)
     cegterg      :      0.10s CPU      0.10s WALL (      16 calls)

     Called by *egterg:
     cdiaghg      :      0.04s CPU      0.04s WALL (      70 calls)
     h_psi        :      0.05s CPU      0.05s WALL (      74 calls)
     g_psi        :      0.00s CPU      0.00s WALL (      56 calls)

     Called by h_psi:
     h_psi:calbec :      0.01s CPU      0.01s WALL (      74 calls)
     vloc_psi     :      0.04s CPU      0.04s WALL (      74 calls)
     add_vuspsi   :      0.00s CPU      0.00s WALL (      74 calls)

     General routines
     calbec       :      0.01s CPU      0.01s WALL (      82 calls)
     fft          :      0.01s CPU      0.04s WALL (      28 calls)
     ffts         :      0.00s CPU      0.00s WALL (       8 calls)
     fftw         :      0.04s CPU      0.04s WALL (     538 calls)
 
     Parallel routines
 
     PWSCF        :      1.35s CPU      2.09s WALL

 
   This run was terminated on:  18:35:13  17May2022            

=------------------------------------------------------------------------------=
   JOB DONE.
=------------------------------------------------------------------------------=

     Program PHONON v.7.0 starts on 17May2022 at 18:35:17 

     This program is part of the open-source Quantum ESPRESSO suite
     for quantum simulation of materials; please cite
         "P. Giannozzi et al., J. Phys.:Condens. Matter 21 395502 (2009);
         "P. Giannozzi et al., J. Phys.:Condens. Matter 29 465901 (2017);
         "P. Giannozzi et al., J. Chem. Phys. 152 154105 (2020);
          URL http://www.quantum-espresso.org", 
     in publications or presentations arising from this work. More details at
     http://www.quantum-espresso.org/quote

     Parallel version (MPI), running on   128 processors

     MPI processes distributed on     7 nodes
     path-images division:  nimage    =       4
     K-points division:     npool     =       4
     R & G space division:  proc/nbgrp/npool/nimage =       8
     41279 MiB available memory on the printing compute node when the environment starts
 
     Reading input from in_files/si_ph_bench_poolsize_8_n_procs_128_0.ph
      Title line not specified: using 'default'.

     Reading xml data from directory:

     /fastscratch/tsievers/QE_TMP_DIR/si_ph_bench_poolsize_8_n_procs_128_0.save/

     IMPORTANT: XC functional enforced from input :
     Exchange-correlation= PW
                           (   1   4   0   0   0   0   0)
     Any further DFT definition will be discarded
     Please, verify this is what you really want

 
     Parallelization info
     --------------------
     sticks:   dense  smooth     PW     G-vecs:    dense   smooth      PW
     Min         125     125     37                 2608     2608     433
     Max         126     126     38                 2611     2611     436
     Sum        1003    1003    301                20875    20875    3479
 
     Using Slab Decomposition
 
     Reading collected, re-writing distributed wavefunctions


     Dynamical matrices for ( 6, 6, 6)  uniform grid of q-points
     (  16 q-points):
       N         xq(1)         xq(2)         xq(3) 
       1   0.000000000   0.000000000   0.000000000
       2  -0.166666667   0.166666667  -0.166666667
       3  -0.333333333   0.333333333  -0.333333333
       4   0.500000000  -0.500000000   0.500000000
       5   0.000000000   0.333333333   0.000000000
       6  -0.166666667   0.500000000  -0.166666667
       7   0.666666667  -0.333333333   0.666666667
       8   0.500000000  -0.166666667   0.500000000
       9   0.333333333   0.000000000   0.333333333
      10   0.000000000   0.666666667   0.000000000
      11   0.833333333  -0.166666667   0.833333333
      12   0.666666667  -0.000000000   0.666666667
      13   0.000000000  -1.000000000   0.000000000
      14   0.666666667  -0.333333333   1.000000000
      15   0.500000000  -0.166666667   0.833333333
      16  -0.333333333  -1.000000000   0.000000000

      Image parallelization. There are  4 images and    76 representations
      The estimated total work is  1512 self-consistent (scf) runs
      I am image number     0 and my work is about  357 scf runs. I calculate: 
      q point number     1, representations:
       0 1 2
      q point number     2, representations:
       0 1 2 3 4
      q point number     3, representations:
       0 1 2 3 4
      q point number     4, representations:
       0 1 2 3 4
      q point number     5, representations:
       0 1 2 3 4
      q point number     6, representations:
       0 1 2 3 4 5 6

     Calculation of q =    0.0000000   0.0000000   0.0000000

     default                                                                    

     bravais-lattice index     =            2
     lattice parameter (alat)  =      10.1899  a.u.
     unit-cell volume          =     264.5151 (a.u.)^3
     number of atoms/cell      =            2
     number of atomic types    =            1
     kinetic-energy cut-off    =      70.0000  Ry
     charge density cut-off    =     280.0000  Ry
     convergence threshold     =      1.0E-15
     beta                      =       0.7000
     number of iterations used =            4
     Exchange-correlation= PW
                           (   1   4   0   0   0   0   0)


     celldm(1)=   10.18990  celldm(2)=    0.00000  celldm(3)=    0.00000
     celldm(4)=    0.00000  celldm(5)=    0.00000  celldm(6)=    0.00000

     crystal axes: (cart. coord. in units of alat)
               a(1) = ( -0.5000  0.0000  0.5000 )  
               a(2) = (  0.0000  0.5000  0.5000 )  
               a(3) = ( -0.5000  0.5000  0.0000 )  

     reciprocal axes: (cart. coord. in units 2 pi/alat)
               b(1) = ( -1.0000 -1.0000  1.0000 )  
               b(2) = (  1.0000  1.0000  1.0000 )  
               b(3) = ( -1.0000  1.0000 -1.0000 )  


     Atoms inside the unit cell: 

     Cartesian axes

     site n.  atom      mass           positions (alat units)
        1     Si  28.0855   tau(    1) = (    0.00000    0.00000    0.00000  )
        2     Si  28.0855   tau(    2) = (   -0.25000    0.25000    0.25000  )

     Computing dynamical matrix for 
                    q = (   0.0000000   0.0000000   0.0000000 )
 
     49 Sym.Ops. (with q -> -q+G )


     G cutoff =  736.4420  (   2611 G-vectors)     FFT grid: ( 40, 40, 40)
     number of k points=    28

     PseudoPot. # 1 for Si read from file:
     ./pseudos/Si.nc.UPF
     MD5 check sum: 9e2d726316af3d4752eea8ab0afbb951
     Pseudo is Norm-conserving + core correction, Zval =  4.0
     Generated using ONCVPSP code by D. R. Hamann
     Using radial grid of 1510 points,  6 beta functions with: 
                l(1) =   0
                l(2) =   0
                l(3) =   1
                l(4) =   1
                l(5) =   2
                l(6) =   2

     Mode symmetry, O_h (m-3m)  point group:


     Electric field:
     Dielectric constant
     Born effective charges in two ways 


     Atomic displacements:
     There are    2 irreducible representations

     Representation     1      3 modes -  To be done

     Representation     2      3 modes -  To be done



     Alpha used in Ewald sum =   2.8000
     PHONON       :      0.85s CPU      0.99s WALL


     Electric Fields Calculation

      iter #   1 total cpu time :     1.9 secs   av.it.:   6.5
      thresh= 1.000E-02 alpha_mix =  0.700 |ddv_scf|^2 =  1.151E-07

      iter #   2 total cpu time :     2.8 secs   av.it.:  11.6
      thresh= 3.392E-05 alpha_mix =  0.700 |ddv_scf|^2 =  4.931E-09

      iter #   3 total cpu time :     3.7 secs   av.it.:  11.5
      thresh= 7.022E-06 alpha_mix =  0.700 |ddv_scf|^2 =  5.558E-11

      iter #   4 total cpu time :     4.9 secs   av.it.:  11.8
      thresh= 7.455E-07 alpha_mix =  0.700 |ddv_scf|^2 =  3.297E-13

      iter #   5 total cpu time :     5.7 secs   av.it.:  10.8
      thresh= 5.742E-08 alpha_mix =  0.700 |ddv_scf|^2 =  1.209E-16

     End of electric fields calculation

          Dielectric constant in cartesian axis 

          (      13.312171233      -0.000000000       0.000000000 )
          (      -0.000000000      13.312171233      -0.000000000 )
          (       0.000000000      -0.000000000      13.312171233 )

          Effective charges (d Force / dE) in cartesian axis without acoustic sum rule applied (asr)

           atom      1   Si Mean Z*:       -0.00678
      Ex  (       -0.00678        0.00000       -0.00000 )
      Ey  (        0.00000       -0.00678        0.00000 )
      Ez  (       -0.00000       -0.00000       -0.00678 )
           atom      2   Si Mean Z*:       -0.00678
      Ex  (       -0.00678        0.00000       -0.00000 )
      Ey  (        0.00000       -0.00678       -0.00000 )
      Ez  (       -0.00000       -0.00000       -0.00678 )

          Effective charges Sum: Mean:       -0.01356
             -0.01356        0.00000       -0.00000
              0.00000       -0.01356       -0.00000
             -0.00000       -0.00000       -0.01356

          Effective charges (d Force / dE) in cartesian axis with asr applied: 
           atom      1   Si Mean Z*:       -0.00000
      E*x (       -0.00000       -0.00000        0.00000 )
      E*y (        0.00000        0.00000        0.00000 )
      E*z (       -0.00000       -0.00000        0.00000 )
           atom      2   Si Mean Z*:        0.00000
      E*x (        0.00000        0.00000       -0.00000 )
      E*y (       -0.00000        0.00000       -0.00000 )
      E*z (        0.00000        0.00000        0.00000 )


     Representation #   1 modes #   1   2   3

     Self-consistent Calculation

      iter #   1 total cpu time :     6.5 secs   av.it.:   5.8
      thresh= 1.000E-02 alpha_mix =  0.700 |ddv_scf|^2 =  1.659E-08

      iter #   2 total cpu time :     8.2 secs   av.it.:  11.6
      thresh= 1.288E-05 alpha_mix =  0.700 |ddv_scf|^2 =  3.727E-10

      iter #   3 total cpu time :     9.8 secs   av.it.:  11.6
      thresh= 1.931E-06 alpha_mix =  0.700 |ddv_scf|^2 =  1.391E-11

      iter #   4 total cpu time :    11.9 secs   av.it.:  11.4
      thresh= 3.730E-07 alpha_mix =  0.700 |ddv_scf|^2 =  4.505E-14

      iter #   5 total cpu time :    12.6 secs   av.it.:  11.8
      thresh= 2.123E-08 alpha_mix =  0.700 |ddv_scf|^2 =  2.091E-16

     End of self-consistent calculation

     Convergence has been achieved 


     Representation #   2 modes #   4   5   6

     Self-consistent Calculation

      iter #   1 total cpu time :    13.7 secs   av.it.:   6.0
      thresh= 1.000E-02 alpha_mix =  0.700 |ddv_scf|^2 =  1.197E-08

      iter #   2 total cpu time :    14.7 secs   av.it.:  11.8
      thresh= 1.094E-05 alpha_mix =  0.700 |ddv_scf|^2 =  4.306E-10

      iter #   3 total cpu time :    15.7 secs   av.it.:  11.8
      thresh= 2.075E-06 alpha_mix =  0.700 |ddv_scf|^2 =  1.960E-11

      iter #   4 total cpu time :    17.5 secs   av.it.:  11.7
      thresh= 4.427E-07 alpha_mix =  0.700 |ddv_scf|^2 =  3.508E-14

      iter #   5 total cpu time :    18.3 secs   av.it.:  11.8
      thresh= 1.873E-08 alpha_mix =  0.700 |ddv_scf|^2 =  9.306E-17

     End of self-consistent calculation

     Convergence has been achieved 
 
     Number of q in the star =    1
     List of q in the star:
          1   0.000000000   0.000000000   0.000000000

          Dielectric constant in cartesian axis 

          (      13.312171233      -0.000000000       0.000000000 )
          (      -0.000000000      13.312171233      -0.000000000 )
          (       0.000000000      -0.000000000      13.312171233 )

          Effective charges (d Force / dE) in cartesian axis without acoustic sum rule applied (asr)

           atom      1   Si Mean Z*:       -0.00678
      Ex  (       -0.00678        0.00000       -0.00000 )
      Ey  (        0.00000       -0.00678        0.00000 )
      Ez  (       -0.00000       -0.00000       -0.00678 )
           atom      2   Si Mean Z*:       -0.00678
      Ex  (       -0.00678        0.00000       -0.00000 )
      Ey  (        0.00000       -0.00678       -0.00000 )
      Ez  (       -0.00000       -0.00000       -0.00678 )

          Effective charges Sum: Mean:       -0.01356
             -0.01356        0.00000       -0.00000
              0.00000       -0.01356       -0.00000
             -0.00000       -0.00000       -0.01356

          Effective charges (d Force / dE) in cartesian axis with asr applied: 
           atom      1   Si Mean Z*:       -0.00000
      E*x (       -0.00000       -0.00000        0.00000 )
      E*y (        0.00000        0.00000        0.00000 )
      E*z (       -0.00000       -0.00000        0.00000 )
           atom      2   Si Mean Z*:        0.00000
      E*x (        0.00000        0.00000       -0.00000 )
      E*y (       -0.00000        0.00000       -0.00000 )
      E*z (        0.00000        0.00000        0.00000 )

          Effective charges (d P / du) in cartesian axis 

           atom      1   Si 
      Px  (       -0.00685       -0.00000        0.00000 )
      Py  (       -0.00000       -0.00685        0.00000 )
      Pz  (        0.00000        0.00000       -0.00685 )
           atom      2   Si 
      Px  (       -0.00685       -0.00000        0.00000 )
      Py  (       -0.00000       -0.00685        0.00000 )
      Pz  (        0.00000        0.00000       -0.00685 )

     Diagonalizing the dynamical matrix

     q = (    0.000000000   0.000000000   0.000000000 ) 

 **************************************************************************
     freq (    1) =      -0.117082 [THz] =      -3.905438 [cm-1]
     freq (    2) =      -0.117082 [THz] =      -3.905438 [cm-1]
     freq (    3) =      -0.117082 [THz] =      -3.905438 [cm-1]
     freq (    4) =      15.412091 [THz] =     514.092003 [cm-1]
     freq (    5) =      15.412091 [THz] =     514.092003 [cm-1]
     freq (    6) =      15.412091 [THz] =     514.092003 [cm-1]
 **************************************************************************

     Mode symmetry, O_h (m-3m)  point group:

     freq (   1-   3) =         -3.9  [cm-1]   --> T_1u G_15  G_4- I  
     freq (   4-   6) =        514.1  [cm-1]   --> T_2g G_25' G_5+ R  

     Calculation of q =   -0.1666667   0.1666667  -0.1666667

     Subspace diagonalization in iterative solution of the eigenvalue problem:
     one sub-group per band group will be used
     scalapack distributed-memory algorithm (size of sub-group:  2*  2 procs)

 
     Parallelization info
     --------------------
     sticks:   dense  smooth     PW     G-vecs:    dense   smooth      PW
     Min         125     125     39                 2608     2608     461
     Max         126     126     40                 2611     2611     463
     Sum        1003    1003    313                20875    20875    3695
 
     Using Slab Decomposition
 

     Title: 
     default                                                                    


     bravais-lattice index     =            2
     lattice parameter (alat)  =      10.1899  a.u.
     unit-cell volume          =     264.5151 (a.u.)^3
     number of atoms/cell      =            2
     number of atomic types    =            1
     number of electrons       =         8.00
     number of Kohn-Sham states=            4
     kinetic-energy cutoff     =      70.0000  Ry
     charge density cutoff     =     280.0000  Ry
     Exchange-correlation= PW
                           (   1   4   0   0   0   0   0)

     celldm(1)=  10.189905  celldm(2)=   0.000000  celldm(3)=   0.000000
     celldm(4)=   0.000000  celldm(5)=   0.000000  celldm(6)=   0.000000

     crystal axes: (cart. coord. in units of alat)
               a(1) = (  -0.500000   0.000000   0.500000 )  
               a(2) = (   0.000000   0.500000   0.500000 )  
               a(3) = (  -0.500000   0.500000   0.000000 )  

     reciprocal axes: (cart. coord. in units 2 pi/alat)
               b(1) = ( -1.000000 -1.000000  1.000000 )  
               b(2) = (  1.000000  1.000000  1.000000 )  
               b(3) = ( -1.000000  1.000000 -1.000000 )  


     PseudoPot. # 1 for Si read from file:
     ./pseudos/Si.nc.UPF
     MD5 check sum: 9e2d726316af3d4752eea8ab0afbb951
     Pseudo is Norm-conserving + core correction, Zval =  4.0
     Generated using ONCVPSP code by D. R. Hamann
     Using radial grid of 1510 points,  6 beta functions with: 
                l(1) =   0
                l(2) =   0
                l(3) =   1
                l(4) =   1
                l(5) =   2
                l(6) =   2

     atomic species   valence    mass     pseudopotential
        Si             4.00    28.08550     Si( 1.00)

     48 Sym. Ops., with inversion, found



   Cartesian axes

     site n.     atom                  positions (alat units)
         1           Si  tau(   1) = (   0.0000000   0.0000000   0.0000000  )
         2           Si  tau(   2) = (  -0.2500000   0.2500000   0.2500000  )

     number of k points=   364

     Number of k-points >= 100: set verbosity='high' to print them.

     Dense  grid:    20875 G-vectors     FFT dimensions: (  40,  40,  40)

     Estimated max dynamical RAM per process >       2.62 MB

     Estimated total dynamical RAM >      83.86 MB

     The potential is recalculated from file :
     /fastscratch/tsievers/QE_TMP_DIR/_ph0/si_ph_bench_poolsize_8_n_procs_128_0.save/charge-density

     Starting wfcs are    8 atomic wfcs

     Band Structure Calculation
     Davidson diagonalization with overlap

     ethr =  1.25E-10,  avg # of iterations = 12.9

     total cpu time spent up to now is        3.1 secs

     End of band structure calculation

     Number of k-points >= 100: set verbosity='high' to print the bands.

     highest occupied level (ev):     6.1106

     Writing config to output data dir /fastscratch/tsievers/QE_TMP_DIR/_ph0/si_ph_bench_poolsize_8_n_procs_128_0.save/

     default                                                                    

     bravais-lattice index     =            2
     lattice parameter (alat)  =      10.1899  a.u.
     unit-cell volume          =     264.5151 (a.u.)^3
     number of atoms/cell      =            2
     number of atomic types    =            1
     kinetic-energy cut-off    =      70.0000  Ry
     charge density cut-off    =     280.0000  Ry
     convergence threshold     =      1.0E-15
     beta                      =       0.7000
     number of iterations used =            4
     Exchange-correlation= PW
                           (   1   4   0   0   0   0   0)


     celldm(1)=   10.18990  celldm(2)=    0.00000  celldm(3)=    0.00000
     celldm(4)=    0.00000  celldm(5)=    0.00000  celldm(6)=    0.00000

     crystal axes: (cart. coord. in units of alat)
               a(1) = ( -0.5000  0.0000  0.5000 )  
               a(2) = (  0.0000  0.5000  0.5000 )  
               a(3) = ( -0.5000  0.5000  0.0000 )  

     reciprocal axes: (cart. coord. in units 2 pi/alat)
               b(1) = ( -1.0000 -1.0000  1.0000 )  
               b(2) = (  1.0000  1.0000  1.0000 )  
               b(3) = ( -1.0000  1.0000 -1.0000 )  


     Atoms inside the unit cell: 

     Cartesian axes

     site n.  atom      mass           positions (alat units)
        1     Si  28.0855   tau(    1) = (    0.00000    0.00000    0.00000  )
        2     Si  28.0855   tau(    2) = (   -0.25000    0.25000    0.25000  )

     Computing dynamical matrix for 
                    q = (  -0.1666667   0.1666667  -0.1666667 )
 
      6 Sym.Ops. (no q -> -q+G )


     G cutoff =  736.4420  (   2611 G-vectors)     FFT grid: ( 40, 40, 40)
     number of k points=   364

     PseudoPot. # 1 for Si read from file:
     ./pseudos/Si.nc.UPF
     MD5 check sum: 9e2d726316af3d4752eea8ab0afbb951
     Pseudo is Norm-conserving + core correction, Zval =  4.0
     Generated using ONCVPSP code by D. R. Hamann
     Using radial grid of 1510 points,  6 beta functions with: 
                l(1) =   0
                l(2) =   0
                l(3) =   1
                l(4) =   1
                l(5) =   2
                l(6) =   2

     Mode symmetry, C_3v (3m)   point group:


     Atomic displacements:
     There are    4 irreducible representations

     Representation     1      1 modes -  To be done

     Representation     2      1 modes -  To be done

     Representation     3      2 modes -  To be done

     Representation     4      2 modes -  To be done



     Alpha used in Ewald sum =   2.8000
     PHONON       :     16.19s CPU     22.66s WALL



     Representation #   1 mode #   1

     Self-consistent Calculation

      iter #   1 total cpu time :    23.5 secs   av.it.:   6.6
      thresh= 1.000E-02 alpha_mix =  0.700 |ddv_scf|^2 =  1.552E-03

      iter #   2 total cpu time :    24.2 secs   av.it.:   8.8
      thresh= 3.939E-03 alpha_mix =  0.700 |ddv_scf|^2 =  5.085E-02

      iter #   3 total cpu time :    26.1 secs   av.it.:   7.7
      thresh= 1.000E-02 alpha_mix =  0.700 |ddv_scf|^2 =  4.139E-07

      iter #   4 total cpu time :    27.3 secs   av.it.:   9.1
      thresh= 6.433E-05 alpha_mix =  0.700 |ddv_scf|^2 =  1.357E-08

      iter #   5 total cpu time :    29.5 secs   av.it.:   9.4
      thresh= 1.165E-05 alpha_mix =  0.700 |ddv_scf|^2 =  8.915E-10

      iter #   6 total cpu time :    30.6 secs   av.it.:   8.3
      thresh= 2.986E-06 alpha_mix =  0.700 |ddv_scf|^2 =  1.602E-09

      iter #   7 total cpu time :    31.6 secs   av.it.:   7.9
      thresh= 4.002E-06 alpha_mix =  0.700 |ddv_scf|^2 =  9.341E-11

      iter #   8 total cpu time :    33.8 secs   av.it.:   8.4
      thresh= 9.665E-07 alpha_mix =  0.700 |ddv_scf|^2 =  7.443E-13

      iter #   9 total cpu time :    34.6 secs   av.it.:   8.2
      thresh= 8.627E-08 alpha_mix =  0.700 |ddv_scf|^2 =  1.689E-14

      iter #  10 total cpu time :    35.3 secs   av.it.:   8.5
      thresh= 1.300E-08 alpha_mix =  0.700 |ddv_scf|^2 =  1.513E-15

      iter #  11 total cpu time :    37.4 secs   av.it.:   9.0
      thresh= 3.890E-09 alpha_mix =  0.700 |ddv_scf|^2 =  2.349E-16

     End of self-consistent calculation

     Convergence has been achieved 


     Representation #   2 mode #   2

     Self-consistent Calculation

      iter #   1 total cpu time :    39.9 secs   av.it.:   6.6
      thresh= 1.000E-02 alpha_mix =  0.700 |ddv_scf|^2 =  1.552E-03

      iter #   2 total cpu time :    41.1 secs   av.it.:   8.8
      thresh= 3.939E-03 alpha_mix =  0.700 |ddv_scf|^2 =  5.085E-02

      iter #   3 total cpu time :    41.8 secs   av.it.:   7.7
      thresh= 1.000E-02 alpha_mix =  0.700 |ddv_scf|^2 =  4.139E-07

      iter #   4 total cpu time :    42.5 secs   av.it.:   9.1
      thresh= 6.433E-05 alpha_mix =  0.700 |ddv_scf|^2 =  1.357E-08

      iter #   5 total cpu time :    43.5 secs   av.it.:   9.4
      thresh= 1.165E-05 alpha_mix =  0.700 |ddv_scf|^2 =  8.915E-10

      iter #   6 total cpu time :    45.3 secs   av.it.:   8.3
      thresh= 2.986E-06 alpha_mix =  0.700 |ddv_scf|^2 =  1.602E-09

      iter #   7 total cpu time :    46.5 secs   av.it.:   7.9
      thresh= 4.002E-06 alpha_mix =  0.700 |ddv_scf|^2 =  9.341E-11

      iter #   8 total cpu time :    50.5 secs   av.it.:   8.4
      thresh= 9.665E-07 alpha_mix =  0.700 |ddv_scf|^2 =  7.443E-13

      iter #   9 total cpu time :    52.0 secs   av.it.:   8.2
      thresh= 8.627E-08 alpha_mix =  0.700 |ddv_scf|^2 =  1.689E-14

      iter #  10 total cpu time :    53.6 secs   av.it.:   8.5
      thresh= 1.300E-08 alpha_mix =  0.700 |ddv_scf|^2 =  1.513E-15

      iter #  11 total cpu time :    54.2 secs   av.it.:   9.0
      thresh= 3.890E-09 alpha_mix =  0.700 |ddv_scf|^2 =  2.350E-16

     End of self-consistent calculation

     Convergence has been achieved 


     Representation #   3 modes #   3   4

     Self-consistent Calculation

      iter #   1 total cpu time :    55.3 secs   av.it.:   6.1
      thresh= 1.000E-02 alpha_mix =  0.700 |ddv_scf|^2 =  4.048E-08

      iter #   2 total cpu time :    58.6 secs   av.it.:  11.4
      thresh= 2.012E-05 alpha_mix =  0.700 |ddv_scf|^2 =  1.801E-09

      iter #   3 total cpu time :    60.1 secs   av.it.:  11.3
      thresh= 4.244E-06 alpha_mix =  0.700 |ddv_scf|^2 =  4.704E-11

      iter #   4 total cpu time :    62.5 secs   av.it.:  11.3
      thresh= 6.859E-07 alpha_mix =  0.700 |ddv_scf|^2 =  5.427E-13

      iter #   5 total cpu time :    64.1 secs   av.it.:  11.3
      thresh= 7.367E-08 alpha_mix =  0.700 |ddv_scf|^2 =  1.152E-14

      iter #   6 total cpu time :    65.6 secs   av.it.:  11.6
      thresh= 1.073E-08 alpha_mix =  0.700 |ddv_scf|^2 =  5.231E-17

     End of self-consistent calculation

     Convergence has been achieved 


     Representation #   4 modes #   5   6

     Self-consistent Calculation

      iter #   1 total cpu time :    67.5 secs   av.it.:   6.0
      thresh= 1.000E-02 alpha_mix =  0.700 |ddv_scf|^2 =  4.048E-08

      iter #   2 total cpu time :    69.9 secs   av.it.:  11.3
      thresh= 2.012E-05 alpha_mix =  0.700 |ddv_scf|^2 =  1.802E-09

      iter #   3 total cpu time :    71.7 secs   av.it.:  11.3
      thresh= 4.245E-06 alpha_mix =  0.700 |ddv_scf|^2 =  4.704E-11

      iter #   4 total cpu time :    74.6 secs   av.it.:  11.3
      thresh= 6.859E-07 alpha_mix =  0.700 |ddv_scf|^2 =  5.430E-13

      iter #   5 total cpu time :    76.6 secs   av.it.:  11.3
      thresh= 7.369E-08 alpha_mix =  0.700 |ddv_scf|^2 =  1.153E-14

      iter #   6 total cpu time :    78.3 secs   av.it.:  11.6
      thresh= 1.074E-08 alpha_mix =  0.700 |ddv_scf|^2 =  5.226E-17

     End of self-consistent calculation

     Convergence has been achieved 
 
     Number of q in the star =    8
     List of q in the star:
          1  -0.166666667   0.166666667  -0.166666667
          2   0.166666667   0.166666667   0.166666667
          3  -0.166666667  -0.166666667  -0.166666667
          4   0.166666667  -0.166666667   0.166666667
          5   0.166666667  -0.166666667  -0.166666667
          6   0.166666667   0.166666667  -0.166666667
          7  -0.166666667  -0.166666667   0.166666667
          8  -0.166666667   0.166666667   0.166666667

     Diagonalizing the dynamical matrix

     q = (   -0.166666667   0.166666667  -0.166666667 ) 

 **************************************************************************
     freq (    1) =       2.202727 [THz] =      73.475072 [cm-1]
     freq (    2) =       2.202727 [THz] =      73.475072 [cm-1]
     freq (    3) =       4.748077 [THz] =     158.378815 [cm-1]
     freq (    4) =      15.023903 [THz] =     501.143473 [cm-1]
     freq (    5) =      15.065885 [THz] =     502.543831 [cm-1]
     freq (    6) =      15.065885 [THz] =     502.543831 [cm-1]
 **************************************************************************

     Mode symmetry, C_3v (3m)   point group:

     freq (   1-   2) =         73.5  [cm-1]   --> E    L_3           
     freq (   3-   3) =        158.4  [cm-1]   --> A_1  L_1           
     freq (   4-   4) =        501.1  [cm-1]   --> A_1  L_1           
     freq (   5-   6) =        502.5  [cm-1]   --> E    L_3           

     Calculation of q =   -0.3333333   0.3333333  -0.3333333
 
     Parallelization info
     --------------------
     sticks:   dense  smooth     PW     G-vecs:    dense   smooth      PW
     Min         125     125     39                 2608     2608     479
     Max         126     126     40                 2611     2611     484
     Sum        1003    1003    313                20875    20875    3839
 
     Using Slab Decomposition
 

     Title: 
     default                                                                    


     bravais-lattice index     =            2
     lattice parameter (alat)  =      10.1899  a.u.
     unit-cell volume          =     264.5151 (a.u.)^3
     number of atoms/cell      =            2
     number of atomic types    =            1
     number of electrons       =         8.00
     number of Kohn-Sham states=            4
     kinetic-energy cutoff     =      70.0000  Ry
     charge density cutoff     =     280.0000  Ry
     Exchange-correlation= PW
                           (   1   4   0   0   0   0   0)

     celldm(1)=  10.189905  celldm(2)=   0.000000  celldm(3)=   0.000000
     celldm(4)=   0.000000  celldm(5)=   0.000000  celldm(6)=   0.000000

     crystal axes: (cart. coord. in units of alat)
               a(1) = (  -0.500000   0.000000   0.500000 )  
               a(2) = (   0.000000   0.500000   0.500000 )  
               a(3) = (  -0.500000   0.500000   0.000000 )  

     reciprocal axes: (cart. coord. in units 2 pi/alat)
               b(1) = ( -1.000000 -1.000000  1.000000 )  
               b(2) = (  1.000000  1.000000  1.000000 )  
               b(3) = ( -1.000000  1.000000 -1.000000 )  


     PseudoPot. # 1 for Si read from file:
     ./pseudos/Si.nc.UPF
     MD5 check sum: 9e2d726316af3d4752eea8ab0afbb951
     Pseudo is Norm-conserving + core correction, Zval =  4.0
     Generated using ONCVPSP code by D. R. Hamann
     Using radial grid of 1510 points,  6 beta functions with: 
                l(1) =   0
                l(2) =   0
                l(3) =   1
                l(4) =   1
                l(5) =   2
                l(6) =   2

     atomic species   valence    mass     pseudopotential
        Si             4.00    28.08550     Si( 1.00)

     48 Sym. Ops., with inversion, found



   Cartesian axes

     site n.     atom                  positions (alat units)
         1           Si  tau(   1) = (   0.0000000   0.0000000   0.0000000  )
         2           Si  tau(   2) = (  -0.2500000   0.2500000   0.2500000  )

     number of k points=   364

     Number of k-points >= 100: set verbosity='high' to print them.

     Dense  grid:    20875 G-vectors     FFT dimensions: (  40,  40,  40)

     Estimated max dynamical RAM per process >       2.63 MB

     Estimated total dynamical RAM >      84.30 MB

     The potential is recalculated from file :
     /fastscratch/tsievers/QE_TMP_DIR/_ph0/si_ph_bench_poolsize_8_n_procs_128_0.save/charge-density

     Starting wfcs are    8 atomic wfcs

     Band Structure Calculation
     Davidson diagonalization with overlap

     ethr =  1.25E-10,  avg # of iterations = 12.9

     total cpu time spent up to now is        6.6 secs

     End of band structure calculation

     Number of k-points >= 100: set verbosity='high' to print the bands.

     highest occupied level (ev):     6.1106

     Writing config to output data dir /fastscratch/tsievers/QE_TMP_DIR/_ph0/si_ph_bench_poolsize_8_n_procs_128_0.save/

     default                                                                    

     bravais-lattice index     =            2
     lattice parameter (alat)  =      10.1899  a.u.
     unit-cell volume          =     264.5151 (a.u.)^3
     number of atoms/cell      =            2
     number of atomic types    =            1
     kinetic-energy cut-off    =      70.0000  Ry
     charge density cut-off    =     280.0000  Ry
     convergence threshold     =      1.0E-15
     beta                      =       0.7000
     number of iterations used =            4
     Exchange-correlation= PW
                           (   1   4   0   0   0   0   0)


     celldm(1)=   10.18990  celldm(2)=    0.00000  celldm(3)=    0.00000
     celldm(4)=    0.00000  celldm(5)=    0.00000  celldm(6)=    0.00000

     crystal axes: (cart. coord. in units of alat)
               a(1) = ( -0.5000  0.0000  0.5000 )  
               a(2) = (  0.0000  0.5000  0.5000 )  
               a(3) = ( -0.5000  0.5000  0.0000 )  

     reciprocal axes: (cart. coord. in units 2 pi/alat)
               b(1) = ( -1.0000 -1.0000  1.0000 )  
               b(2) = (  1.0000  1.0000  1.0000 )  
               b(3) = ( -1.0000  1.0000 -1.0000 )  


     Atoms inside the unit cell: 

     Cartesian axes

     site n.  atom      mass           positions (alat units)
        1     Si  28.0855   tau(    1) = (    0.00000    0.00000    0.00000  )
        2     Si  28.0855   tau(    2) = (   -0.25000    0.25000    0.25000  )

     Computing dynamical matrix for 
                    q = (  -0.3333333   0.3333333  -0.3333333 )
 
      6 Sym.Ops. (no q -> -q+G )


     G cutoff =  736.4420  (   2611 G-vectors)     FFT grid: ( 40, 40, 40)
     number of k points=   364

     PseudoPot. # 1 for Si read from file:
     ./pseudos/Si.nc.UPF
     MD5 check sum: 9e2d726316af3d4752eea8ab0afbb951
     Pseudo is Norm-conserving + core correction, Zval =  4.0
     Generated using ONCVPSP code by D. R. Hamann
     Using radial grid of 1510 points,  6 beta functions with: 
                l(1) =   0
                l(2) =   0
                l(3) =   1
                l(4) =   1
                l(5) =   2
                l(6) =   2

     Mode symmetry, C_3v (3m)   point group:


     Atomic displacements:
     There are    4 irreducible representations

     Representation     1      1 modes -  To be done

     Representation     2      1 modes -  To be done

     Representation     3      2 modes -  To be done

     Representation     4      2 modes -  To be done



     Alpha used in Ewald sum =   2.8000
     PHONON       :     59.95s CPU   1m23.88s WALL



     Representation #   1 mode #   1

     Self-consistent Calculation

      iter #   1 total cpu time :    84.4 secs   av.it.:   6.5
      thresh= 1.000E-02 alpha_mix =  0.700 |ddv_scf|^2 =  9.826E-05

      iter #   2 total cpu time :    85.3 secs   av.it.:   9.7
      thresh= 9.913E-04 alpha_mix =  0.700 |ddv_scf|^2 =  7.842E-04

      iter #   3 total cpu time :    86.0 secs   av.it.:   8.3
      thresh= 2.800E-03 alpha_mix =  0.700 |ddv_scf|^2 =  1.444E-07

      iter #   4 total cpu time :    86.7 secs   av.it.:   9.8
      thresh= 3.799E-05 alpha_mix =  0.700 |ddv_scf|^2 =  2.930E-09

      iter #   5 total cpu time :    87.6 secs   av.it.:   9.9
      thresh= 5.413E-06 alpha_mix =  0.700 |ddv_scf|^2 =  3.096E-11

      iter #   6 total cpu time :    89.5 secs   av.it.:  10.4
      thresh= 5.564E-07 alpha_mix =  0.700 |ddv_scf|^2 =  3.156E-12

      iter #   7 total cpu time :    90.5 secs   av.it.:  10.3
      thresh= 1.776E-07 alpha_mix =  0.700 |ddv_scf|^2 =  2.096E-12

      iter #   8 total cpu time :    91.9 secs   av.it.:   9.4
      thresh= 1.448E-07 alpha_mix =  0.700 |ddv_scf|^2 =  2.469E-12

      iter #   9 total cpu time :    93.5 secs   av.it.:   8.9
      thresh= 1.571E-07 alpha_mix =  0.700 |ddv_scf|^2 =  3.007E-13

      iter #  10 total cpu time :    94.2 secs   av.it.:   8.9
      thresh= 5.484E-08 alpha_mix =  0.700 |ddv_scf|^2 =  1.790E-15

      iter #  11 total cpu time :    94.9 secs   av.it.:   9.6
      thresh= 4.231E-09 alpha_mix =  0.700 |ddv_scf|^2 =  1.704E-16

     End of self-consistent calculation

     Convergence has been achieved 


     Representation #   2 mode #   2

     Self-consistent Calculation

      iter #   1 total cpu time :    96.5 secs   av.it.:   6.5
      thresh= 1.000E-02 alpha_mix =  0.700 |ddv_scf|^2 =  9.826E-05

      iter #   2 total cpu time :    97.2 secs   av.it.:   9.7
      thresh= 9.913E-04 alpha_mix =  0.700 |ddv_scf|^2 =  7.842E-04

      iter #   3 total cpu time :    97.9 secs   av.it.:   8.3
      thresh= 2.800E-03 alpha_mix =  0.700 |ddv_scf|^2 =  1.444E-07

      iter #   4 total cpu time :    99.9 secs   av.it.:   9.8
      thresh= 3.799E-05 alpha_mix =  0.700 |ddv_scf|^2 =  2.930E-09

      iter #   5 total cpu time :   100.8 secs   av.it.:   9.9
      thresh= 5.413E-06 alpha_mix =  0.700 |ddv_scf|^2 =  3.096E-11

      iter #   6 total cpu time :   101.5 secs   av.it.:  10.4
      thresh= 5.564E-07 alpha_mix =  0.700 |ddv_scf|^2 =  3.157E-12

      iter #   7 total cpu time :   102.3 secs   av.it.:  10.3
      thresh= 1.777E-07 alpha_mix =  0.700 |ddv_scf|^2 =  2.102E-12

      iter #   8 total cpu time :   104.3 secs   av.it.:   9.4
      thresh= 1.450E-07 alpha_mix =  0.700 |ddv_scf|^2 =  2.470E-12

      iter #   9 total cpu time :   105.2 secs   av.it.:   8.9
      thresh= 1.572E-07 alpha_mix =  0.700 |ddv_scf|^2 =  3.011E-13

      iter #  10 total cpu time :   106.7 secs   av.it.:   8.9
      thresh= 5.487E-08 alpha_mix =  0.700 |ddv_scf|^2 =  1.795E-15

      iter #  11 total cpu time :   108.3 secs   av.it.:   9.6
      thresh= 4.237E-09 alpha_mix =  0.700 |ddv_scf|^2 =  1.708E-16

     End of self-consistent calculation

     Convergence has been achieved 


     Representation #   3 modes #   3   4

     Self-consistent Calculation

      iter #   1 total cpu time :   110.1 secs   av.it.:   6.1
      thresh= 1.000E-02 alpha_mix =  0.700 |ddv_scf|^2 =  5.513E-08

      iter #   2 total cpu time :   112.6 secs   av.it.:  11.4
      thresh= 2.348E-05 alpha_mix =  0.700 |ddv_scf|^2 =  3.819E-09

      iter #   3 total cpu time :   114.4 secs   av.it.:  11.2
      thresh= 6.179E-06 alpha_mix =  0.700 |ddv_scf|^2 =  5.530E-11

      iter #   4 total cpu time :   116.0 secs   av.it.:  11.3
      thresh= 7.436E-07 alpha_mix =  0.700 |ddv_scf|^2 =  5.546E-13

      iter #   5 total cpu time :   119.0 secs   av.it.:  11.3
      thresh= 7.447E-08 alpha_mix =  0.700 |ddv_scf|^2 =  1.079E-14

      iter #   6 total cpu time :   122.6 secs   av.it.:  11.5
      thresh= 1.039E-08 alpha_mix =  0.700 |ddv_scf|^2 =  7.357E-17

     End of self-consistent calculation

     Convergence has been achieved 


     Representation #   4 modes #   5   6

     Self-consistent Calculation

      iter #   1 total cpu time :   125.9 secs   av.it.:   6.0
      thresh= 1.000E-02 alpha_mix =  0.700 |ddv_scf|^2 =  5.515E-08

      iter #   2 total cpu time :   127.8 secs   av.it.:  11.3
      thresh= 2.348E-05 alpha_mix =  0.700 |ddv_scf|^2 =  3.823E-09

      iter #   3 total cpu time :   129.4 secs   av.it.:  11.2
      thresh= 6.183E-06 alpha_mix =  0.700 |ddv_scf|^2 =  5.528E-11

      iter #   4 total cpu time :   131.6 secs   av.it.:  11.3
      thresh= 7.435E-07 alpha_mix =  0.700 |ddv_scf|^2 =  5.547E-13

      iter #   5 total cpu time :   133.5 secs   av.it.:  11.3
      thresh= 7.448E-08 alpha_mix =  0.700 |ddv_scf|^2 =  1.079E-14

      iter #   6 total cpu time :   135.0 secs   av.it.:  11.5
      thresh= 1.039E-08 alpha_mix =  0.700 |ddv_scf|^2 =  7.351E-17

     End of self-consistent calculation

     Convergence has been achieved 
 
     Number of q in the star =    8
     List of q in the star:
          1  -0.333333333   0.333333333  -0.333333333
          2   0.333333333   0.333333333   0.333333333
          3  -0.333333333  -0.333333333  -0.333333333
          4   0.333333333  -0.333333333   0.333333333
          5   0.333333333  -0.333333333  -0.333333333
          6   0.333333333   0.333333333  -0.333333333
          7  -0.333333333  -0.333333333   0.333333333
          8  -0.333333333   0.333333333   0.333333333

     Diagonalizing the dynamical matrix

     q = (   -0.333333333   0.333333333  -0.333333333 ) 

 **************************************************************************
     freq (    1) =       3.044088 [THz] =     101.539830 [cm-1]
     freq (    2) =       3.044088 [THz] =     101.539830 [cm-1]
     freq (    3) =       8.747636 [THz] =     291.789738 [cm-1]
     freq (    4) =      13.857022 [THz] =     462.220491 [cm-1]
     freq (    5) =      14.763295 [THz] =     492.450510 [cm-1]
     freq (    6) =      14.763295 [THz] =     492.450510 [cm-1]
 **************************************************************************

     Mode symmetry, C_3v (3m)   point group:

     freq (   1-   2) =        101.5  [cm-1]   --> E    L_3           
     freq (   3-   3) =        291.8  [cm-1]   --> A_1  L_1           
     freq (   4-   4) =        462.2  [cm-1]   --> A_1  L_1           
     freq (   5-   6) =        492.5  [cm-1]   --> E    L_3           

     Calculation of q =    0.5000000  -0.5000000   0.5000000
 
     Parallelization info
     --------------------
     sticks:   dense  smooth     PW     G-vecs:    dense   smooth      PW
     Min         125     125     42                 2608     2608     501
     Max         126     126     43                 2611     2611     503
     Sum        1003    1003    337                20875    20875    4015
 
     Using Slab Decomposition
 

     Title: 
     default                                                                    


     bravais-lattice index     =            2
     lattice parameter (alat)  =      10.1899  a.u.
     unit-cell volume          =     264.5151 (a.u.)^3
     number of atoms/cell      =            2
     number of atomic types    =            1
     number of electrons       =         8.00
     number of Kohn-Sham states=            4
     kinetic-energy cutoff     =      70.0000  Ry
     charge density cutoff     =     280.0000  Ry
     Exchange-correlation= PW
                           (   1   4   0   0   0   0   0)

     celldm(1)=  10.189905  celldm(2)=   0.000000  celldm(3)=   0.000000
     celldm(4)=   0.000000  celldm(5)=   0.000000  celldm(6)=   0.000000

     crystal axes: (cart. coord. in units of alat)
               a(1) = (  -0.500000   0.000000   0.500000 )  
               a(2) = (   0.000000   0.500000   0.500000 )  
               a(3) = (  -0.500000   0.500000   0.000000 )  

     reciprocal axes: (cart. coord. in units 2 pi/alat)
               b(1) = ( -1.000000 -1.000000  1.000000 )  
               b(2) = (  1.000000  1.000000  1.000000 )  
               b(3) = ( -1.000000  1.000000 -1.000000 )  


     PseudoPot. # 1 for Si read from file:
     ./pseudos/Si.nc.UPF
     MD5 check sum: 9e2d726316af3d4752eea8ab0afbb951
     Pseudo is Norm-conserving + core correction, Zval =  4.0
     Generated using ONCVPSP code by D. R. Hamann
     Using radial grid of 1510 points,  6 beta functions with: 
                l(1) =   0
                l(2) =   0
                l(3) =   1
                l(4) =   1
                l(5) =   2
                l(6) =   2

     atomic species   valence    mass     pseudopotential
        Si             4.00    28.08550     Si( 1.00)

     48 Sym. Ops., with inversion, found



   Cartesian axes

     site n.     atom                  positions (alat units)
         1           Si  tau(   1) = (   0.0000000   0.0000000   0.0000000  )
         2           Si  tau(   2) = (  -0.2500000   0.2500000   0.2500000  )

     number of k points=   182

     Number of k-points >= 100: set verbosity='high' to print them.

     Dense  grid:    20875 G-vectors     FFT dimensions: (  40,  40,  40)

     Estimated max dynamical RAM per process >       2.65 MB

     Estimated total dynamical RAM >      84.76 MB

     The potential is recalculated from file :
     /fastscratch/tsievers/QE_TMP_DIR/_ph0/si_ph_bench_poolsize_8_n_procs_128_0.save/charge-density

     Starting wfcs are    8 atomic wfcs

     Band Structure Calculation
     Davidson diagonalization with overlap

     ethr =  1.25E-10,  avg # of iterations = 12.9

     total cpu time spent up to now is        8.5 secs

     End of band structure calculation

     Number of k-points >= 100: set verbosity='high' to print the bands.

     highest occupied level (ev):     6.1106

     Writing config to output data dir /fastscratch/tsievers/QE_TMP_DIR/_ph0/si_ph_bench_poolsize_8_n_procs_128_0.save/

     default                                                                    

     bravais-lattice index     =            2
     lattice parameter (alat)  =      10.1899  a.u.
     unit-cell volume          =     264.5151 (a.u.)^3
     number of atoms/cell      =            2
     number of atomic types    =            1
     kinetic-energy cut-off    =      70.0000  Ry
     charge density cut-off    =     280.0000  Ry
     convergence threshold     =      1.0E-15
     beta                      =       0.7000
     number of iterations used =            4
     Exchange-correlation= PW
                           (   1   4   0   0   0   0   0)


     celldm(1)=   10.18990  celldm(2)=    0.00000  celldm(3)=    0.00000
     celldm(4)=    0.00000  celldm(5)=    0.00000  celldm(6)=    0.00000

     crystal axes: (cart. coord. in units of alat)
               a(1) = ( -0.5000  0.0000  0.5000 )  
               a(2) = (  0.0000  0.5000  0.5000 )  
               a(3) = ( -0.5000  0.5000  0.0000 )  

     reciprocal axes: (cart. coord. in units 2 pi/alat)
               b(1) = ( -1.0000 -1.0000  1.0000 )  
               b(2) = (  1.0000  1.0000  1.0000 )  
               b(3) = ( -1.0000  1.0000 -1.0000 )  


     Atoms inside the unit cell: 

     Cartesian axes

     site n.  atom      mass           positions (alat units)
        1     Si  28.0855   tau(    1) = (    0.00000    0.00000    0.00000  )
        2     Si  28.0855   tau(    2) = (   -0.25000    0.25000    0.25000  )

     Computing dynamical matrix for 
                    q = (   0.5000000  -0.5000000   0.5000000 )
 
     13 Sym.Ops. (with q -> -q+G )


     G cutoff =  736.4420  (   2611 G-vectors)     FFT grid: ( 40, 40, 40)
     number of k points=   182

     PseudoPot. # 1 for Si read from file:
     ./pseudos/Si.nc.UPF
     MD5 check sum: 9e2d726316af3d4752eea8ab0afbb951
     Pseudo is Norm-conserving + core correction, Zval =  4.0
     Generated using ONCVPSP code by D. R. Hamann
     Using radial grid of 1510 points,  6 beta functions with: 
                l(1) =   0
                l(2) =   0
                l(3) =   1
                l(4) =   1
                l(5) =   2
                l(6) =   2


     Atomic displacements:
     There are    4 irreducible representations

     Representation     1      1 modes -  To be done

     Representation     2      1 modes -  To be done

     Representation     3      2 modes -  To be done

     Representation     4      2 modes -  To be done



     Alpha used in Ewald sum =   2.8000
     PHONON       :   1m41.75s CPU   2m19.11s WALL



     Representation #   1 mode #   1

     Self-consistent Calculation

      iter #   1 total cpu time :   139.4 secs   av.it.:   5.8
      thresh= 1.000E-02 alpha_mix =  0.700 |ddv_scf|^2 =  3.143E-06

      iter #   2 total cpu time :   139.9 secs   av.it.:   9.9
      thresh= 1.773E-04 alpha_mix =  0.700 |ddv_scf|^2 =  2.900E-06

      iter #   3 total cpu time :   140.4 secs   av.it.:   9.2
      thresh= 1.703E-04 alpha_mix =  0.700 |ddv_scf|^2 =  3.870E-10

      iter #   4 total cpu time :   141.1 secs   av.it.:  10.1
      thresh= 1.967E-06 alpha_mix =  0.700 |ddv_scf|^2 =  6.649E-12

      iter #   5 total cpu time :   142.1 secs   av.it.:   9.8
      thresh= 2.579E-07 alpha_mix =  0.700 |ddv_scf|^2 =  9.550E-14

      iter #   6 total cpu time :   142.6 secs   av.it.:   9.7
      thresh= 3.090E-08 alpha_mix =  0.700 |ddv_scf|^2 =  1.254E-15

      iter #   7 total cpu time :   143.0 secs   av.it.:   9.7
      thresh= 3.541E-09 alpha_mix =  0.700 |ddv_scf|^2 =  4.286E-18

     End of self-consistent calculation

     Convergence has been achieved 


     Representation #   2 mode #   2

     Self-consistent Calculation

      iter #   1 total cpu time :   143.5 secs   av.it.:   6.7
      thresh= 1.000E-02 alpha_mix =  0.700 |ddv_scf|^2 =  4.802E-05

      iter #   2 total cpu time :   144.5 secs   av.it.:  10.0
      thresh= 6.930E-04 alpha_mix =  0.700 |ddv_scf|^2 =  1.569E-04

      iter #   3 total cpu time :   145.0 secs   av.it.:   9.0
      thresh= 1.253E-03 alpha_mix =  0.700 |ddv_scf|^2 =  9.298E-09

      iter #   4 total cpu time :   146.3 secs   av.it.:   9.7
      thresh= 9.642E-06 alpha_mix =  0.700 |ddv_scf|^2 =  1.946E-10

      iter #   5 total cpu time :   147.1 secs   av.it.:  10.3
      thresh= 1.395E-06 alpha_mix =  0.700 |ddv_scf|^2 =  9.630E-12

      iter #   6 total cpu time :   147.5 secs   av.it.:  10.0
      thresh= 3.103E-07 alpha_mix =  0.700 |ddv_scf|^2 =  2.663E-13

      iter #   7 total cpu time :   147.9 secs   av.it.:   9.4
      thresh= 5.160E-08 alpha_mix =  0.700 |ddv_scf|^2 =  7.404E-17

     End of self-consistent calculation

     Convergence has been achieved 


     Representation #   3 modes #   3   4

     Self-consistent Calculation

      iter #   1 total cpu time :   149.2 secs   av.it.:   6.1
      thresh= 1.000E-02 alpha_mix =  0.700 |ddv_scf|^2 =  1.110E-07

      iter #   2 total cpu time :   151.0 secs   av.it.:  11.2
      thresh= 3.331E-05 alpha_mix =  0.700 |ddv_scf|^2 =  9.407E-09

      iter #   3 total cpu time :   152.6 secs   av.it.:  11.1
      thresh= 9.699E-06 alpha_mix =  0.700 |ddv_scf|^2 =  6.299E-11

      iter #   4 total cpu time :   155.6 secs   av.it.:  11.1
      thresh= 7.937E-07 alpha_mix =  0.700 |ddv_scf|^2 =  7.043E-14

      iter #   5 total cpu time :   157.4 secs   av.it.:  11.3
      thresh= 2.654E-08 alpha_mix =  0.700 |ddv_scf|^2 =  9.275E-16

     End of self-consistent calculation

     Convergence has been achieved 


     Representation #   4 modes #   5   6

     Self-consistent Calculation

      iter #   1 total cpu time :   159.2 secs   av.it.:   5.5
      thresh= 1.000E-02 alpha_mix =  0.700 |ddv_scf|^2 =  1.259E-08

      iter #   2 total cpu time :   160.2 secs   av.it.:  11.2
      thresh= 1.122E-05 alpha_mix =  0.700 |ddv_scf|^2 =  3.301E-10

      iter #   3 total cpu time :   161.7 secs   av.it.:  11.2
      thresh= 1.817E-06 alpha_mix =  0.700 |ddv_scf|^2 =  2.029E-11

      iter #   4 total cpu time :   163.4 secs   av.it.:  11.2
      thresh= 4.505E-07 alpha_mix =  0.700 |ddv_scf|^2 =  8.688E-14

      iter #   5 total cpu time :   164.8 secs   av.it.:  11.1
      thresh= 2.948E-08 alpha_mix =  0.700 |ddv_scf|^2 =  1.387E-15

      iter #   6 total cpu time :   167.1 secs   av.it.:  11.2
      thresh= 3.725E-09 alpha_mix =  0.700 |ddv_scf|^2 =  2.954E-18

     End of self-consistent calculation

     Convergence has been achieved 
 
     Number of q in the star =    4
     List of q in the star:
          1   0.500000000  -0.500000000   0.500000000
          2   0.500000000   0.500000000   0.500000000
          3  -0.500000000   0.500000000   0.500000000
          4   0.500000000   0.500000000  -0.500000000

     Diagonalizing the dynamical matrix

     q = (    0.500000000  -0.500000000   0.500000000 ) 

 **************************************************************************
     freq (    1) =       3.158310 [THz] =     105.349892 [cm-1]
     freq (    2) =       3.158310 [THz] =     105.349892 [cm-1]
     freq (    3) =      11.168976 [THz] =     372.556923 [cm-1]
     freq (    4) =      12.390704 [THz] =     413.309398 [cm-1]
     freq (    5) =      14.704258 [THz] =     490.481253 [cm-1]
     freq (    6) =      14.704258 [THz] =     490.481253 [cm-1]
 **************************************************************************

     Calculation of q =    0.0000000   0.3333333   0.0000000
 
     Parallelization info
     --------------------
     sticks:   dense  smooth     PW     G-vecs:    dense   smooth      PW
     Min         125     125     39                 2608     2608     464
     Max         126     126     40                 2611     2611     466
     Sum        1003    1003    313                20875    20875    3719
 
     Using Slab Decomposition
 

     Title: 
     default                                                                    


     bravais-lattice index     =            2
     lattice parameter (alat)  =      10.1899  a.u.
     unit-cell volume          =     264.5151 (a.u.)^3
     number of atoms/cell      =            2
     number of atomic types    =            1
     number of electrons       =         8.00
     number of Kohn-Sham states=            4
     kinetic-energy cutoff     =      70.0000  Ry
     charge density cutoff     =     280.0000  Ry
     Exchange-correlation= PW
                           (   1   4   0   0   0   0   0)

     celldm(1)=  10.189905  celldm(2)=   0.000000  celldm(3)=   0.000000
     celldm(4)=   0.000000  celldm(5)=   0.000000  celldm(6)=   0.000000

     crystal axes: (cart. coord. in units of alat)
               a(1) = (  -0.500000   0.000000   0.500000 )  
               a(2) = (   0.000000   0.500000   0.500000 )  
               a(3) = (  -0.500000   0.500000   0.000000 )  

     reciprocal axes: (cart. coord. in units 2 pi/alat)
               b(1) = ( -1.000000 -1.000000  1.000000 )  
               b(2) = (  1.000000  1.000000  1.000000 )  
               b(3) = ( -1.000000  1.000000 -1.000000 )  


     PseudoPot. # 1 for Si read from file:
     ./pseudos/Si.nc.UPF
     MD5 check sum: 9e2d726316af3d4752eea8ab0afbb951
     Pseudo is Norm-conserving + core correction, Zval =  4.0
     Generated using ONCVPSP code by D. R. Hamann
     Using radial grid of 1510 points,  6 beta functions with: 
                l(1) =   0
                l(2) =   0
                l(3) =   1
                l(4) =   1
                l(5) =   2
                l(6) =   2

     atomic species   valence    mass     pseudopotential
        Si             4.00    28.08550     Si( 1.00)

     48 Sym. Ops., with inversion, found



   Cartesian axes

     site n.     atom                  positions (alat units)
         1           Si  tau(   1) = (   0.0000000   0.0000000   0.0000000  )
         2           Si  tau(   2) = (  -0.2500000   0.2500000   0.2500000  )

     number of k points=   252

     Number of k-points >= 100: set verbosity='high' to print them.

     Dense  grid:    20875 G-vectors     FFT dimensions: (  40,  40,  40)

     Estimated max dynamical RAM per process >       2.62 MB

     Estimated total dynamical RAM >      83.91 MB

     The potential is recalculated from file :
     /fastscratch/tsievers/QE_TMP_DIR/_ph0/si_ph_bench_poolsize_8_n_procs_128_0.save/charge-density

     Starting wfcs are    8 atomic wfcs

     Band Structure Calculation
     Davidson diagonalization with overlap

     ethr =  1.25E-10,  avg # of iterations = 12.8

     total cpu time spent up to now is       11.1 secs

     End of band structure calculation

     Number of k-points >= 100: set verbosity='high' to print the bands.

     highest occupied level (ev):     6.1106

     Writing config to output data dir /fastscratch/tsievers/QE_TMP_DIR/_ph0/si_ph_bench_poolsize_8_n_procs_128_0.save/

     default                                                                    

     bravais-lattice index     =            2
     lattice parameter (alat)  =      10.1899  a.u.
     unit-cell volume          =     264.5151 (a.u.)^3
     number of atoms/cell      =            2
     number of atomic types    =            1
     kinetic-energy cut-off    =      70.0000  Ry
     charge density cut-off    =     280.0000  Ry
     convergence threshold     =      1.0E-15
     beta                      =       0.7000
     number of iterations used =            4
     Exchange-correlation= PW
                           (   1   4   0   0   0   0   0)


     celldm(1)=   10.18990  celldm(2)=    0.00000  celldm(3)=    0.00000
     celldm(4)=    0.00000  celldm(5)=    0.00000  celldm(6)=    0.00000

     crystal axes: (cart. coord. in units of alat)
               a(1) = ( -0.5000  0.0000  0.5000 )  
               a(2) = (  0.0000  0.5000  0.5000 )  
               a(3) = ( -0.5000  0.5000  0.0000 )  

     reciprocal axes: (cart. coord. in units 2 pi/alat)
               b(1) = ( -1.0000 -1.0000  1.0000 )  
               b(2) = (  1.0000  1.0000  1.0000 )  
               b(3) = ( -1.0000  1.0000 -1.0000 )  


     Atoms inside the unit cell: 

     Cartesian axes

     site n.  atom      mass           positions (alat units)
        1     Si  28.0855   tau(    1) = (    0.00000    0.00000    0.00000  )
        2     Si  28.0855   tau(    2) = (   -0.25000    0.25000    0.25000  )

     Computing dynamical matrix for 
                    q = (   0.0000000   0.3333333   0.0000000 )
 
      8 Sym.Ops. (no q -> -q+G )


     G cutoff =  736.4420  (   2611 G-vectors)     FFT grid: ( 40, 40, 40)
     number of k points=   252

     PseudoPot. # 1 for Si read from file:
     ./pseudos/Si.nc.UPF
     MD5 check sum: 9e2d726316af3d4752eea8ab0afbb951
     Pseudo is Norm-conserving + core correction, Zval =  4.0
     Generated using ONCVPSP code by D. R. Hamann
     Using radial grid of 1510 points,  6 beta functions with: 
                l(1) =   0
                l(2) =   0
                l(3) =   1
                l(4) =   1
                l(5) =   2
                l(6) =   2

     Mode symmetry, C_4v (4mm)  point group:


     Atomic displacements:
     There are    4 irreducible representations

     Representation     1      1 modes -  To be done

     Representation     2      1 modes -  To be done

     Representation     3      2 modes -  To be done

     Representation     4      2 modes -  To be done



     Alpha used in Ewald sum =   2.8000
     PHONON       :   2m 3.55s CPU   2m52.62s WALL



     Representation #   1 mode #   1

     Self-consistent Calculation

      iter #   1 total cpu time :   173.0 secs   av.it.:   6.8
      thresh= 1.000E-02 alpha_mix =  0.700 |ddv_scf|^2 =  2.084E-03

      iter #   2 total cpu time :   173.6 secs   av.it.:   9.1
      thresh= 4.565E-03 alpha_mix =  0.700 |ddv_scf|^2 =  6.356E-02

      iter #   3 total cpu time :   175.4 secs   av.it.:   8.1
      thresh= 1.000E-02 alpha_mix =  0.700 |ddv_scf|^2 =  5.826E-08

      iter #   4 total cpu time :   176.0 secs   av.it.:   9.0
      thresh= 2.414E-05 alpha_mix =  0.700 |ddv_scf|^2 =  2.806E-09

      iter #   5 total cpu time :   176.5 secs   av.it.:   8.6
      thresh= 5.297E-06 alpha_mix =  0.700 |ddv_scf|^2 =  9.073E-10

      iter #   6 total cpu time :   177.0 secs   av.it.:   8.1
      thresh= 3.012E-06 alpha_mix =  0.700 |ddv_scf|^2 =  1.260E-12

      iter #   7 total cpu time :   178.3 secs   av.it.:   8.4
      thresh= 1.123E-07 alpha_mix =  0.700 |ddv_scf|^2 =  2.719E-14

      iter #   8 total cpu time :   178.7 secs   av.it.:   8.3
      thresh= 1.649E-08 alpha_mix =  0.700 |ddv_scf|^2 =  3.589E-16

     End of self-consistent calculation

     Convergence has been achieved 


     Representation #   2 mode #   2

     Self-consistent Calculation

      iter #   1 total cpu time :   179.2 secs   av.it.:   5.9
      thresh= 1.000E-02 alpha_mix =  0.700 |ddv_scf|^2 =  3.182E-07

      iter #   2 total cpu time :   179.8 secs   av.it.:  10.4
      thresh= 5.641E-05 alpha_mix =  0.700 |ddv_scf|^2 =  5.145E-08

      iter #   3 total cpu time :   180.3 secs   av.it.:  10.2
      thresh= 2.268E-05 alpha_mix =  0.700 |ddv_scf|^2 =  6.508E-10

      iter #   4 total cpu time :   181.0 secs   av.it.:  10.4
      thresh= 2.551E-06 alpha_mix =  0.700 |ddv_scf|^2 =  2.704E-11

      iter #   5 total cpu time :   182.0 secs   av.it.:  10.3
      thresh= 5.200E-07 alpha_mix =  0.700 |ddv_scf|^2 =  6.158E-14

      iter #   6 total cpu time :   182.8 secs   av.it.:  10.4
      thresh= 2.482E-08 alpha_mix =  0.700 |ddv_scf|^2 =  1.230E-15

      iter #   7 total cpu time :   183.3 secs   av.it.:  10.4
      thresh= 3.507E-09 alpha_mix =  0.700 |ddv_scf|^2 =  2.873E-17

     End of self-consistent calculation

     Convergence has been achieved 


     Representation #   3 modes #   3   4

     Self-consistent Calculation

      iter #   1 total cpu time :   185.2 secs   av.it.:   6.0
      thresh= 1.000E-02 alpha_mix =  0.700 |ddv_scf|^2 =  5.759E-08

      iter #   2 total cpu time :   187.3 secs   av.it.:  11.3
      thresh= 2.400E-05 alpha_mix =  0.700 |ddv_scf|^2 =  5.250E-09

      iter #   3 total cpu time :   189.3 secs   av.it.:  11.1
      thresh= 7.246E-06 alpha_mix =  0.700 |ddv_scf|^2 =  6.118E-11

      iter #   4 total cpu time :   190.9 secs   av.it.:  11.3
      thresh= 7.822E-07 alpha_mix =  0.700 |ddv_scf|^2 =  6.882E-13

      iter #   5 total cpu time :   192.2 secs   av.it.:  11.2
      thresh= 8.296E-08 alpha_mix =  0.700 |ddv_scf|^2 =  1.142E-14

      iter #   6 total cpu time :   193.3 secs   av.it.:  11.5
      thresh= 1.069E-08 alpha_mix =  0.700 |ddv_scf|^2 =  4.651E-17

     End of self-consistent calculation

     Convergence has been achieved 


     Representation #   4 modes #   5   6

     Self-consistent Calculation

      iter #   1 total cpu time :   196.7 secs   av.it.:   6.0
      thresh= 1.000E-02 alpha_mix =  0.700 |ddv_scf|^2 =  7.593E-08

      iter #   2 total cpu time :   197.9 secs   av.it.:  11.2
      thresh= 2.755E-05 alpha_mix =  0.700 |ddv_scf|^2 =  7.160E-09

      iter #   3 total cpu time :   199.7 secs   av.it.:  11.0
      thresh= 8.461E-06 alpha_mix =  0.700 |ddv_scf|^2 =  6.477E-11

      iter #   4 total cpu time :   201.1 secs   av.it.:  11.2
      thresh= 8.048E-07 alpha_mix =  0.700 |ddv_scf|^2 =  4.403E-13

      iter #   5 total cpu time :   202.8 secs   av.it.:  11.1
      thresh= 6.635E-08 alpha_mix =  0.700 |ddv_scf|^2 =  1.046E-14

      iter #   6 total cpu time :   203.8 secs   av.it.:  11.5
      thresh= 1.023E-08 alpha_mix =  0.700 |ddv_scf|^2 =  4.427E-17

     End of self-consistent calculation

     Convergence has been achieved 
 
     Number of q in the star =    6
     List of q in the star:
          1   0.000000000   0.333333333   0.000000000
          2   0.333333333   0.000000000   0.000000000
          3   0.000000000   0.000000000   0.333333333
          4   0.000000000  -0.333333333   0.000000000
          5  -0.333333333   0.000000000   0.000000000
          6   0.000000000   0.000000000  -0.333333333

     Diagonalizing the dynamical matrix

     q = (    0.000000000   0.333333333   0.000000000 ) 

 **************************************************************************
     freq (    1) =       2.948435 [THz] =      98.349211 [cm-1]
     freq (    2) =       2.948435 [THz] =      98.349211 [cm-1]
     freq (    3) =       4.953312 [THz] =     165.224691 [cm-1]
     freq (    4) =      14.670273 [THz] =     489.347637 [cm-1]
     freq (    5) =      14.670273 [THz] =     489.347637 [cm-1]
     freq (    6) =      15.143120 [THz] =     505.120117 [cm-1]
 **************************************************************************

     Mode symmetry, C_4v (4mm)  point group:

     freq (   1-   2) =         98.3  [cm-1]   --> E    G_5 D_5       
     freq (   3-   3) =        165.2  [cm-1]   --> A_1  G_1 D_1       
     freq (   4-   5) =        489.3  [cm-1]   --> E    G_5 D_5       
     freq (   6-   6) =        505.1  [cm-1]   --> B_2  G_4 D_2'      

     Calculation of q =   -0.1666667   0.5000000  -0.1666667
 
     Parallelization info
     --------------------
     sticks:   dense  smooth     PW     G-vecs:    dense   smooth      PW
     Min         125     125     39                 2608     2608     479
     Max         126     126     40                 2611     2611     484
     Sum        1003    1003    313                20875    20875    3839
 
     Using Slab Decomposition
 

     Title: 
     default                                                                    


     bravais-lattice index     =            2
     lattice parameter (alat)  =      10.1899  a.u.
     unit-cell volume          =     264.5151 (a.u.)^3
     number of atoms/cell      =            2
     number of atomic types    =            1
     number of electrons       =         8.00
     number of Kohn-Sham states=            4
     kinetic-energy cutoff     =      70.0000  Ry
     charge density cutoff     =     280.0000  Ry
     Exchange-correlation= PW
                           (   1   4   0   0   0   0   0)

     celldm(1)=  10.189905  celldm(2)=   0.000000  celldm(3)=   0.000000
     celldm(4)=   0.000000  celldm(5)=   0.000000  celldm(6)=   0.000000

     crystal axes: (cart. coord. in units of alat)
               a(1) = (  -0.500000   0.000000   0.500000 )  
               a(2) = (   0.000000   0.500000   0.500000 )  
               a(3) = (  -0.500000   0.500000   0.000000 )  

     reciprocal axes: (cart. coord. in units 2 pi/alat)
               b(1) = ( -1.000000 -1.000000  1.000000 )  
               b(2) = (  1.000000  1.000000  1.000000 )  
               b(3) = ( -1.000000  1.000000 -1.000000 )  


     PseudoPot. # 1 for Si read from file:
     ./pseudos/Si.nc.UPF
     MD5 check sum: 9e2d726316af3d4752eea8ab0afbb951
     Pseudo is Norm-conserving + core correction, Zval =  4.0
     Generated using ONCVPSP code by D. R. Hamann
     Using radial grid of 1510 points,  6 beta functions with: 
                l(1) =   0
                l(2) =   0
                l(3) =   1
                l(4) =   1
                l(5) =   2
                l(6) =   2

     atomic species   valence    mass     pseudopotential
        Si             4.00    28.08550     Si( 1.00)

     48 Sym. Ops., with inversion, found



   Cartesian axes

     site n.     atom                  positions (alat units)
         1           Si  tau(   1) = (   0.0000000   0.0000000   0.0000000  )
         2           Si  tau(   2) = (  -0.2500000   0.2500000   0.2500000  )

     number of k points=   936

     Number of k-points >= 100: set verbosity='high' to print them.

     Dense  grid:    20875 G-vectors     FFT dimensions: (  40,  40,  40)

     Estimated max dynamical RAM per process >       2.63 MB

     Estimated total dynamical RAM >      84.27 MB

     The potential is recalculated from file :
     /fastscratch/tsievers/QE_TMP_DIR/_ph0/si_ph_bench_poolsize_8_n_procs_128_0.save/charge-density

     Starting wfcs are    8 atomic wfcs

     Band Structure Calculation
     Davidson diagonalization with overlap

     ethr =  1.25E-10,  avg # of iterations = 12.8

     total cpu time spent up to now is       19.7 secs

     End of band structure calculation

     Number of k-points >= 100: set verbosity='high' to print the bands.

     highest occupied level (ev):     6.1106

     Writing config to output data dir /fastscratch/tsievers/QE_TMP_DIR/_ph0/si_ph_bench_poolsize_8_n_procs_128_0.save/

     default                                                                    

     bravais-lattice index     =            2
     lattice parameter (alat)  =      10.1899  a.u.
     unit-cell volume          =     264.5151 (a.u.)^3
     number of atoms/cell      =            2
     number of atomic types    =            1
     kinetic-energy cut-off    =      70.0000  Ry
     charge density cut-off    =     280.0000  Ry
     convergence threshold     =      1.0E-15
     beta                      =       0.7000
     number of iterations used =            4
     Exchange-correlation= PW
                           (   1   4   0   0   0   0   0)


     celldm(1)=   10.18990  celldm(2)=    0.00000  celldm(3)=    0.00000
     celldm(4)=    0.00000  celldm(5)=    0.00000  celldm(6)=    0.00000

     crystal axes: (cart. coord. in units of alat)
               a(1) = ( -0.5000  0.0000  0.5000 )  
               a(2) = (  0.0000  0.5000  0.5000 )  
               a(3) = ( -0.5000  0.5000  0.0000 )  

     reciprocal axes: (cart. coord. in units 2 pi/alat)
               b(1) = ( -1.0000 -1.0000  1.0000 )  
               b(2) = (  1.0000  1.0000  1.0000 )  
               b(3) = ( -1.0000  1.0000 -1.0000 )  


     Atoms inside the unit cell: 

     Cartesian axes

     site n.  atom      mass           positions (alat units)
        1     Si  28.0855   tau(    1) = (    0.00000    0.00000    0.00000  )
        2     Si  28.0855   tau(    2) = (   -0.25000    0.25000    0.25000  )

     Computing dynamical matrix for 
                    q = (  -0.1666667   0.5000000  -0.1666667 )
 
      2 Sym.Ops. (no q -> -q+G )


     G cutoff =  736.4420  (   2611 G-vectors)     FFT grid: ( 40, 40, 40)
     number of k points=   936

     PseudoPot. # 1 for Si read from file:
     ./pseudos/Si.nc.UPF
     MD5 check sum: 9e2d726316af3d4752eea8ab0afbb951
     Pseudo is Norm-conserving + core correction, Zval =  4.0
     Generated using ONCVPSP code by D. R. Hamann
     Using radial grid of 1510 points,  6 beta functions with: 
                l(1) =   0
                l(2) =   0
                l(3) =   1
                l(4) =   1
                l(5) =   2
                l(6) =   2

     Mode symmetry, C_s (m)     point group:


     Atomic displacements:
     There are    6 irreducible representations

     Representation     1      1 modes -  To be done

     Representation     2      1 modes -  To be done

     Representation     3      1 modes -  To be done

     Representation     4      1 modes -  To be done

     Representation     5      1 modes -  To be done

     Representation     6      1 modes -  To be done



     Alpha used in Ewald sum =   2.8000
     PHONON       :   2m34.57s CPU   3m36.56s WALL



     Representation #   1 mode #   1

     Self-consistent Calculation

      iter #   1 total cpu time :   217.8 secs   av.it.:   6.7
      thresh= 1.000E-02 alpha_mix =  0.700 |ddv_scf|^2 =  1.192E-04

      iter #   2 total cpu time :   219.7 secs   av.it.:   9.8
      thresh= 1.092E-03 alpha_mix =  0.700 |ddv_scf|^2 =  1.301E-03

      iter #   3 total cpu time :   221.9 secs   av.it.:   8.3
      thresh= 3.606E-03 alpha_mix =  0.700 |ddv_scf|^2 =  1.137E-07

      iter #   4 total cpu time :   224.0 secs   av.it.:  10.3
      thresh= 3.372E-05 alpha_mix =  0.700 |ddv_scf|^2 =  4.976E-09

      iter #   5 total cpu time :   227.1 secs   av.it.:  10.1
      thresh= 7.054E-06 alpha_mix =  0.700 |ddv_scf|^2 =  5.307E-11

      iter #   6 total cpu time :   229.1 secs   av.it.:  10.5
      thresh= 7.285E-07 alpha_mix =  0.700 |ddv_scf|^2 =  6.547E-12

      iter #   7 total cpu time :   232.3 secs   av.it.:  10.3
      thresh= 2.559E-07 alpha_mix =  0.700 |ddv_scf|^2 =  8.695E-14

      iter #   8 total cpu time :   235.3 secs   av.it.:  10.3
      thresh= 2.949E-08 alpha_mix =  0.700 |ddv_scf|^2 =  6.401E-13

      iter #   9 total cpu time :   237.1 secs   av.it.:   8.4
      thresh= 8.001E-08 alpha_mix =  0.700 |ddv_scf|^2 =  7.527E-15

      iter #  10 total cpu time :   239.0 secs   av.it.:   9.4
      thresh= 8.676E-09 alpha_mix =  0.700 |ddv_scf|^2 =  2.920E-15

      iter #  11 total cpu time :   240.8 secs   av.it.:   9.1
      thresh= 5.403E-09 alpha_mix =  0.700 |ddv_scf|^2 =  7.456E-17

     End of self-consistent calculation

     Convergence has been achieved 


     Representation #   2 mode #   2

     Self-consistent Calculation

      iter #   1 total cpu time :   242.9 secs   av.it.:   6.5
      thresh= 1.000E-02 alpha_mix =  0.700 |ddv_scf|^2 =  7.780E-05

      iter #   2 total cpu time :   244.6 secs   av.it.:   9.9
      thresh= 8.820E-04 alpha_mix =  0.700 |ddv_scf|^2 =  8.352E-04

      iter #   3 total cpu time :   246.1 secs   av.it.:   8.3
      thresh= 2.890E-03 alpha_mix =  0.700 |ddv_scf|^2 =  7.658E-08

      iter #   4 total cpu time :   247.8 secs   av.it.:  10.3
      thresh= 2.767E-05 alpha_mix =  0.700 |ddv_scf|^2 =  3.951E-09

      iter #   5 total cpu time :   249.5 secs   av.it.:  10.1
      thresh= 6.286E-06 alpha_mix =  0.700 |ddv_scf|^2 =  9.334E-11

      iter #   6 total cpu time :   251.3 secs   av.it.:  10.1
      thresh= 9.661E-07 alpha_mix =  0.700 |ddv_scf|^2 =  6.316E-12

      iter #   7 total cpu time :   254.9 secs   av.it.:  10.3
      thresh= 2.513E-07 alpha_mix =  0.700 |ddv_scf|^2 =  2.726E-12

      iter #   8 total cpu time :   257.2 secs   av.it.:   9.5
      thresh= 1.651E-07 alpha_mix =  0.700 |ddv_scf|^2 =  6.865E-12

      iter #   9 total cpu time :   259.1 secs   av.it.:   8.7
      thresh= 2.620E-07 alpha_mix =  0.700 |ddv_scf|^2 =  2.360E-13

      iter #  10 total cpu time :   260.8 secs   av.it.:   9.2
      thresh= 4.858E-08 alpha_mix =  0.700 |ddv_scf|^2 =  6.891E-15

      iter #  11 total cpu time :   262.9 secs   av.it.:   9.9
      thresh= 8.301E-09 alpha_mix =  0.700 |ddv_scf|^2 =  3.151E-16

     End of self-consistent calculation

     Convergence has been achieved 


     Representation #   3 mode #   3

     Self-consistent Calculation

      iter #   1 total cpu time :   264.9 secs   av.it.:   6.4
      thresh= 1.000E-02 alpha_mix =  0.700 |ddv_scf|^2 =  5.668E-05

      iter #   2 total cpu time :   266.8 secs   av.it.:   9.9
      thresh= 7.529E-04 alpha_mix =  0.700 |ddv_scf|^2 =  6.227E-04

      iter #   3 total cpu time :   269.4 secs   av.it.:   8.3
      thresh= 2.495E-03 alpha_mix =  0.700 |ddv_scf|^2 =  8.762E-08

      iter #   4 total cpu time :   271.9 secs   av.it.:  10.2
      thresh= 2.960E-05 alpha_mix =  0.700 |ddv_scf|^2 =  2.884E-09

      iter #   5 total cpu time :   274.2 secs   av.it.:  10.2
      thresh= 5.371E-06 alpha_mix =  0.700 |ddv_scf|^2 =  8.882E-11

      iter #   6 total cpu time :   276.3 secs   av.it.:  10.5
      thresh= 9.424E-07 alpha_mix =  0.700 |ddv_scf|^2 =  3.543E-12

      iter #   7 total cpu time :   278.7 secs   av.it.:  10.6
      thresh= 1.882E-07 alpha_mix =  0.700 |ddv_scf|^2 =  5.641E-13

      iter #   8 total cpu time :   280.7 secs   av.it.:   9.5
      thresh= 7.510E-08 alpha_mix =  0.700 |ddv_scf|^2 =  1.779E-12

      iter #   9 total cpu time :   283.3 secs   av.it.:   8.8
      thresh= 1.334E-07 alpha_mix =  0.700 |ddv_scf|^2 =  2.437E-13

      iter #  10 total cpu time :   286.0 secs   av.it.:   8.7
      thresh= 4.937E-08 alpha_mix =  0.700 |ddv_scf|^2 =  3.510E-15

      iter #  11 total cpu time :   288.1 secs   av.it.:   9.7
      thresh= 5.925E-09 alpha_mix =  0.700 |ddv_scf|^2 =  1.610E-16

     End of self-consistent calculation

     Convergence has been achieved 


     Representation #   4 mode #   4

     Self-consistent Calculation

      iter #   1 total cpu time :   289.5 secs   av.it.:   6.2
      thresh= 1.000E-02 alpha_mix =  0.700 |ddv_scf|^2 =  1.528E-05

      iter #   2 total cpu time :   291.2 secs   av.it.:  10.0
      thresh= 3.909E-04 alpha_mix =  0.700 |ddv_scf|^2 =  1.576E-04

      iter #   3 total cpu time :   292.7 secs   av.it.:   8.3
      thresh= 1.255E-03 alpha_mix =  0.700 |ddv_scf|^2 =  6.503E-08

      iter #   4 total cpu time :   294.7 secs   av.it.:  10.2
      thresh= 2.550E-05 alpha_mix =  0.700 |ddv_scf|^2 =  1.660E-09

      iter #   5 total cpu time :   297.3 secs   av.it.:  10.2
      thresh= 4.075E-06 alpha_mix =  0.700 |ddv_scf|^2 =  8.266E-11

      iter #   6 total cpu time :   299.1 secs   av.it.:  10.5
      thresh= 9.092E-07 alpha_mix =  0.700 |ddv_scf|^2 =  7.263E-12

      iter #   7 total cpu time :   301.1 secs   av.it.:  10.3
      thresh= 2.695E-07 alpha_mix =  0.700 |ddv_scf|^2 =  1.283E-12

      iter #   8 total cpu time :   302.9 secs   av.it.:   9.8
      thresh= 1.133E-07 alpha_mix =  0.700 |ddv_scf|^2 =  5.534E-12

      iter #   9 total cpu time :   305.1 secs   av.it.:   8.5
      thresh= 2.352E-07 alpha_mix =  0.700 |ddv_scf|^2 =  1.083E-13

      iter #  10 total cpu time :   307.0 secs   av.it.:   9.3
      thresh= 3.291E-08 alpha_mix =  0.700 |ddv_scf|^2 =  9.863E-15

      iter #  11 total cpu time :   308.6 secs   av.it.:   9.7
      thresh= 9.931E-09 alpha_mix =  0.700 |ddv_scf|^2 =  3.655E-16

     End of self-consistent calculation

     Convergence has been achieved 


     Representation #   5 mode #   5

     Self-consistent Calculation

      iter #   1 total cpu time :   310.4 secs   av.it.:   6.0
      thresh= 1.000E-02 alpha_mix =  0.700 |ddv_scf|^2 =  3.840E-07

      iter #   2 total cpu time :   312.3 secs   av.it.:  10.4
      thresh= 6.196E-05 alpha_mix =  0.700 |ddv_scf|^2 =  5.269E-08

      iter #   3 total cpu time :   314.6 secs   av.it.:  10.1
      thresh= 2.295E-05 alpha_mix =  0.700 |ddv_scf|^2 =  2.835E-10

      iter #   4 total cpu time :   316.3 secs   av.it.:  10.3
      thresh= 1.684E-06 alpha_mix =  0.700 |ddv_scf|^2 =  1.615E-12

      iter #   5 total cpu time :   319.4 secs   av.it.:  10.3
      thresh= 1.271E-07 alpha_mix =  0.700 |ddv_scf|^2 =  3.400E-14

      iter #   6 total cpu time :   321.2 secs   av.it.:  10.6
      thresh= 1.844E-08 alpha_mix =  0.700 |ddv_scf|^2 =  2.086E-16

     End of self-consistent calculation

     Convergence has been achieved 


     Representation #   6 mode #   6

     Self-consistent Calculation

      iter #   1 total cpu time :   322.8 secs   av.it.:   6.0
      thresh= 1.000E-02 alpha_mix =  0.700 |ddv_scf|^2 =  3.840E-07

      iter #   2 total cpu time :   324.7 secs   av.it.:  10.4
      thresh= 6.196E-05 alpha_mix =  0.700 |ddv_scf|^2 =  5.269E-08

      iter #   3 total cpu time :   326.5 secs   av.it.:  10.1
      thresh= 2.295E-05 alpha_mix =  0.700 |ddv_scf|^2 =  2.835E-10

      iter #   4 total cpu time :   328.3 secs   av.it.:  10.3
      thresh= 1.684E-06 alpha_mix =  0.700 |ddv_scf|^2 =  1.614E-12

      iter #   5 total cpu time :   330.0 secs   av.it.:  10.3
      thresh= 1.271E-07 alpha_mix =  0.700 |ddv_scf|^2 =  3.399E-14

      iter #   6 total cpu time :   331.7 secs   av.it.:  10.6
      thresh= 1.844E-08 alpha_mix =  0.700 |ddv_scf|^2 =  2.086E-16

     End of self-consistent calculation

     Convergence has been achieved 
 
     Number of q in the star =   24
     List of q in the star:
          1  -0.166666667   0.500000000  -0.166666667
          2   0.166666667   0.500000000   0.166666667
          3  -0.166666667   0.500000000   0.166666667
          4   0.166666667   0.500000000  -0.166666667
          5   0.500000000  -0.166666667   0.166666667
          6   0.166666667  -0.166666667   0.500000000
          7  -0.166666667  -0.500000000  -0.166666667
          8   0.166666667  -0.500000000  -0.166666667
          9  -0.166666667  -0.500000000   0.166666667
         10   0.500000000  -0.166666667  -0.166666667
         11  -0.500000000  -0.166666667   0.166666667
         12   0.500000000   0.166666667   0.166666667
         13  -0.166666667   0.166666667  -0.500000000
         14  -0.166666667  -0.166666667   0.500000000
         15   0.166666667   0.166666667   0.500000000
         16   0.166666667  -0.166666667  -0.500000000
         17  -0.500000000   0.166666667  -0.166666667
         18  -0.500000000  -0.166666667  -0.166666667
         19   0.166666667  -0.500000000   0.166666667
         20   0.500000000   0.166666667  -0.166666667
         21   0.166666667   0.166666667  -0.500000000
         22  -0.166666667  -0.166666667  -0.500000000
         23  -0.500000000   0.166666667   0.166666667
         24  -0.166666667   0.166666667   0.500000000

     Diagonalizing the dynamical matrix

     q = (   -0.166666667   0.500000000  -0.166666667 ) 

 **************************************************************************
     freq (    1) =       3.594148 [THz] =     119.887866 [cm-1]
     freq (    2) =       4.477712 [THz] =     149.360395 [cm-1]
     freq (    3) =       7.460523 [THz] =     248.856252 [cm-1]
     freq (    4) =      13.865466 [THz] =     462.502165 [cm-1]
     freq (    5) =      14.341221 [THz] =     478.371638 [cm-1]
     freq (    6) =      14.653501 [THz] =     488.788176 [cm-1]
 **************************************************************************

     Mode symmetry, C_s (m)     point group:

     freq (   1-   1) =        119.9  [cm-1]   --> A''                
     freq (   2-   2) =        149.4  [cm-1]   --> A'                 
     freq (   3-   3) =        248.9  [cm-1]   --> A'                 
     freq (   4-   4) =        462.5  [cm-1]   --> A'                 
     freq (   5-   5) =        478.4  [cm-1]   --> A''                
     freq (   6-   6) =        488.8  [cm-1]   --> A'                 
 
     init_run     :      0.11s CPU      0.15s WALL (       5 calls)
     electrons    :     17.06s CPU     17.53s WALL (       5 calls)

     Called by init_run:
     wfcinit      :      0.00s CPU      0.01s WALL (       5 calls)
     potinit      :      0.01s CPU      0.01s WALL (       5 calls)
     hinit0       :      0.05s CPU      0.05s WALL (       5 calls)

     Called by electrons:
     c_bands      :     17.06s CPU     17.53s WALL (       5 calls)
     v_of_rho     :      0.00s CPU      0.01s WALL (       6 calls)

     Called by c_bands:
     init_us_2    :      1.61s CPU      1.70s WALL (   14944 calls)
     init_us_2:cp :      1.57s CPU      1.66s WALL (   14944 calls)
     cegterg      :     11.76s CPU     12.06s WALL (     528 calls)

     Called by *egterg:
     cdiaghg      :      4.60s CPU      4.72s WALL (    7643 calls)
     h_psi        :    113.42s CPU    118.39s WALL (  162428 calls)
     g_psi        :      0.06s CPU      0.07s WALL (    7115 calls)

     Called by h_psi:
     h_psi:calbec :      8.99s CPU      9.38s WALL (  162428 calls)
     vloc_psi     :     96.54s CPU    100.78s WALL (  162428 calls)
     add_vuspsi   :      6.37s CPU      6.72s WALL (  162428 calls)

     General routines
     calbec       :     15.86s CPU     16.69s WALL (  325920 calls)
     fft          :      0.25s CPU      0.26s WALL (    1429 calls)
     ffts         :      2.62s CPU      2.64s WALL (    1812 calls)
     fftw         :    103.58s CPU    108.30s WALL ( 1355110 calls)
     davcio       :      0.88s CPU      2.54s WALL (   68001 calls)
 
     Parallel routines
 
     PHONON       :   4m11.27s CPU   5m32.98s WALL

     INITIALIZATION: 
     phq_setup    :      0.02s CPU      0.04s WALL (       6 calls)
     phq_init     :      0.97s CPU      2.02s WALL (       6 calls)
 
     phq_init     :      0.97s CPU      2.02s WALL (       6 calls)
     set_drhoc    :      0.45s CPU      0.45s WALL (      18 calls)
     init_vloc    :      0.01s CPU      0.01s WALL (       6 calls)
     init_us_1    :      0.01s CPU      0.02s WALL (       6 calls)
     init_us_2    :      1.61s CPU      1.70s WALL (   14944 calls)
 
     DYNAMICAL MATRIX:
     dynmat0      :      0.56s CPU      1.60s WALL (       6 calls)
     phqscf       :    228.03s CPU    296.86s WALL (       6 calls)
     dynmatrix    :      0.54s CPU      1.48s WALL (       6 calls)
 
     phqscf       :    228.03s CPU    296.86s WALL (       6 calls)
     solve_linter :    227.35s CPU    292.19s WALL (      24 calls)
     drhodv       :      0.65s CPU      0.70s WALL (      24 calls)
 
     dynmat0      :      0.56s CPU      1.60s WALL (       6 calls)
     dynmat_us    :      0.24s CPU      0.25s WALL (       6 calls)
     d2ionq       :      0.00s CPU      0.00s WALL (       6 calls)
     dynmatcc     :      0.30s CPU      0.30s WALL (       6 calls)
 
     dynmat_us    :      0.24s CPU      0.25s WALL (       6 calls)
 
     phqscf       :    228.03s CPU    296.86s WALL (       6 calls)
     solve_linter :    227.35s CPU    292.19s WALL (      24 calls)
 
     solve_linter :    227.35s CPU    292.19s WALL (      24 calls)
     dvqpsi_us    :      4.17s CPU      4.25s WALL (    1668 calls)
     sth_kernel   :    167.01s CPU    174.84s WALL (     191 calls)
     apply_dpot_b :      8.40s CPU      8.85s WALL (   11528 calls)
     ortho        :      0.44s CPU      0.47s WALL (   13196 calls)
     cgsolve      :    124.09s CPU    129.68s WALL (   13196 calls)
     incdrhoscf   :      9.69s CPU     10.16s WALL (   13175 calls)
     dv_of_drho   :      0.13s CPU      0.14s WALL (     268 calls)
     mix_pot      :      2.47s CPU     34.08s WALL (     191 calls)
     psymdvscf    :      4.61s CPU      4.63s WALL (     186 calls)
 
     dvqpsi_us    :      4.17s CPU      4.25s WALL (    1668 calls)
     dvqpsi_us_on :      0.33s CPU      0.34s WALL (    1668 calls)
 
     cgsolve      :    124.09s CPU    129.68s WALL (   13196 calls)
     ch_psi       :    120.96s CPU    126.35s WALL (  154257 calls)
 
     ch_psi       :    120.96s CPU    126.35s WALL (  154257 calls)
     h_psi        :    113.42s CPU    118.39s WALL (  162428 calls)
     last         :     11.88s CPU     12.42s WALL (  154257 calls)
 
     h_psi        :    113.42s CPU    118.39s WALL (  162428 calls)
     add_vuspsi   :      6.37s CPU      6.72s WALL (  162428 calls)
 
     incdrhoscf   :      9.69s CPU     10.16s WALL (   13175 calls)
 
 
      General routines
     calbec       :     15.86s CPU     16.69s WALL (  325920 calls)
     fft          :      0.25s CPU      0.26s WALL (    1429 calls)
     ffts         :      2.62s CPU      2.64s WALL (    1812 calls)
     fftw         :    103.58s CPU    108.30s WALL ( 1355110 calls)
     davcio       :      0.88s CPU      2.54s WALL (   68001 calls)
     write_rec    :      0.57s CPU     31.14s WALL (     215 calls)
 
 
     PHONON       :   4m11.27s CPU   5m32.98s WALL

 
   This run was terminated on:  18:40:50  17May2022            

=------------------------------------------------------------------------------=
   JOB DONE.
=------------------------------------------------------------------------------=
real 336.64
user 5423.39
sys 150.41
