
     Program PHONON v.7.0 starts on  8Jun2022 at  3:46:16 

     This program is part of the open-source Quantum ESPRESSO suite
     for quantum simulation of materials; please cite
         "P. Giannozzi et al., J. Phys.:Condens. Matter 21 395502 (2009);
         "P. Giannozzi et al., J. Phys.:Condens. Matter 29 465901 (2017);
         "P. Giannozzi et al., J. Chem. Phys. 152 154105 (2020);
          URL http://www.quantum-espresso.org", 
     in publications or presentations arising from this work. More details at
     http://www.quantum-espresso.org/quote

     Parallel version (MPI), running on    72 processors

     MPI processes distributed on     4 nodes
     path-images division:  nimage    =       2
     K-points division:     npool     =       2
     R & G space division:  proc/nbgrp/npool/nimage =      18
     20539 MiB available memory on the printing compute node when the environment starts
 

     Reading xml data from directory:

     /fastscratch/tsievers/QE_TMP_DIR/TaS2_24_ph_bench_nimages_2_n_procs_72_0.save/

     IMPORTANT: XC functional enforced from input :
     Exchange-correlation= PBE
                           (   1   4   3   4   0   0   0)
     Any further DFT definition will be discarded
     Please, verify this is what you really want

 
     Parallelization info
     --------------------
     sticks:   dense  smooth     PW     G-vecs:    dense   smooth      PW
     Min          60      31      9                 7329     2593     419
     Max          62      32     10                 7342     2605     434
     Sum        1099     559    163               132031    46753    7647
 
     Using Slab Decomposition
 
 ----2D----2D----2D----2D----2D----2D----2D----2D----2D----2D----2D----2D
  The code is running with the 2D cutoff
  Please refer to:
  Sohier, T., Calandra, M., & Mauri, F. (2017), 
  Density functional perturbation theory for gated two-dimensional heterostructu
 res:
  Theoretical developments and application to flexural phonons in graphene.
  Physical Review B, 96(7), 75448. https://doi.org/10.1103/PhysRevB.96.075448
 ----2D----2D----2D----2D----2D----2D----2D----2D----2D----2D----2D----2D
     Reading collected, re-writing distributed wavefunctions


     Dynamical matrices for (12,12, 1)  uniform grid of q-points
     (  19 q-points):
       N         xq(1)         xq(2)         xq(3) 
       1   0.000000000   0.000000000   0.000000000
       2   0.000000000   0.096225045   0.000000000
       3   0.000000000   0.192450090   0.000000000
       4   0.000000000   0.288675135   0.000000000
       5   0.000000000   0.384900179   0.000000000
       6   0.000000000   0.481125224   0.000000000
       7   0.000000000  -0.577350269   0.000000000
       8   0.083333333   0.144337567   0.000000000
       9   0.083333333   0.240562612   0.000000000
      10   0.083333333   0.336787657   0.000000000
      11   0.083333333   0.433012702   0.000000000
      12   0.083333333   0.529237747   0.000000000
      13   0.166666667   0.288675135   0.000000000
      14   0.166666667   0.384900179   0.000000000
      15   0.166666667   0.481125224   0.000000000
      16   0.166666667   0.577350269   0.000000000
      17   0.250000000   0.433012702   0.000000000
      18   0.250000000   0.529237747   0.000000000
      19   0.333333333   0.577350269   0.000000000

     Saving dvscf to file. Distribute only q points, not irreducible represetations.

      Image parallelization. There are  2 images and     2 representations
      The estimated total work is   870 self-consistent (scf) runs
      I am image number     1 and my work is about  440 scf runs. I calculate: 
      q point number    12, representations:
       0 1 2 3 4 5 6 7 8 9
      q point number    13, representations:
       0 1 2 3 4 5 6 7 8 9
      q point number    14, representations:
       0 1 2 3 4 5 6 7 8 9
      q point number    15, representations:
       0 1 2 3 4 5 6 7 8 9
      q point number    16, representations:
       0 1 2 3 4 5 6 7 8 9
      q point number    17, representations:
       0 1 2 3 4 5 6 7 8 9
      q point number    18, representations:
       0 1 2 3 4 5 6 7 8 9
      q point number    19, representations:
       0 1 2 3 4 5 6 7 8 9

     Calculation of q =    0.0833333   0.5292377   0.0000000

     Subspace diagonalization in iterative solution of the eigenvalue problem:
     a serial algorithm will be used

 
     Parallelization info
     --------------------
     sticks:   dense  smooth     PW     G-vecs:    dense   smooth      PW
     Min          60      31     10                 7329     2593     508
     Max          62      32     11                 7342     2605     525
     Sum        1099     559    187               132031    46753    9285
 
     Using Slab Decomposition
 

     Title: 
     TaS2                                                                       


     bravais-lattice index     =            4
     lattice parameter (alat)  =       6.3117  a.u.
     unit-cell volume          =     977.9382 (a.u.)^3
     number of atoms/cell      =            3
     number of atomic types    =            2
     number of electrons       =        17.00
     number of Kohn-Sham states=           13
     kinetic-energy cutoff     =      50.0000  Ry
     charge density cutoff     =     400.0000  Ry
     Exchange-correlation= PBE
                           (   1   4   3   4   0   0   0)

     celldm(1)=   6.311685  celldm(2)=   0.000000  celldm(3)=   4.491018
     celldm(4)=   0.000000  celldm(5)=   0.000000  celldm(6)=   0.000000

     crystal axes: (cart. coord. in units of alat)
               a(1) = (   1.000000   0.000000   0.000000 )  
               a(2) = (  -0.500000   0.866025   0.000000 )  
               a(3) = (   0.000000   0.000000   4.491018 )  

     reciprocal axes: (cart. coord. in units 2 pi/alat)
               b(1) = (  1.000000  0.577350  0.000000 )  
               b(2) = (  0.000000  1.154701  0.000000 )  
               b(3) = (  0.000000  0.000000  0.222667 )  


     PseudoPot. # 1 for Ta read from file:
     /fastscratch/tsievers/TaS2_24_ph_benchmark_images//pseudos/Ta.pbe-hgh.UPF
     MD5 check sum: 129c51a9a4223465c43ca8d238d17e53
     Pseudo is Norm-conserving, Zval =  5.0
     Generated in analytical, separable form
     Using radial grid of 1273 points,  6 beta functions with: 
                l(1) =   0
                l(2) =   0
                l(3) =   1
                l(4) =   1
                l(5) =   2
                l(6) =   2

     PseudoPot. # 2 for S  read from file:
     /fastscratch/tsievers/TaS2_24_ph_benchmark_images//pseudos/S.pbe-hgh.UPF
     MD5 check sum: 3a21e384b95a7cc84d045d3bcc0c4ba8
     Pseudo is Norm-conserving, Zval =  6.0
     Generated in analytical, separable form
     Using radial grid of 1151 points,  3 beta functions with: 
                l(1) =   0
                l(2) =   0
                l(3) =   1

     atomic species   valence    mass     pseudopotential
        Ta             5.00   180.95000     Ta( 1.00)
        S              6.00    32.06000     S ( 1.00)

     12 Sym. Ops. (no inversion) found



   Cartesian axes

     site n.     atom                  positions (alat units)
         1           S   tau(   1) = (  -0.0000000   0.5773503   0.4679048  )
         2           Ta  tau(   2) = (   0.0000000   0.0000000   0.0000000  )
         3           S   tau(   3) = (  -0.0000000   0.5773503  -0.4679048  )

     number of k points=  1152  Marzari-Vanderbilt smearing, width (Ry)=  0.0060

     Number of k-points >= 100: set verbosity='high' to print them.

     Dense  grid:   132031 G-vectors     FFT dimensions: (  45,  45, 192)

     Smooth grid:    46753 G-vectors     FFT dimensions: (  30,  30, 128)

     Estimated max dynamical RAM per process >       6.89 MB

     Estimated total dynamical RAM >     247.87 MB
 ----2D----2D----2D----2D----2D----2D----2D----2D----2D----2D----2D----2D
  The code is running with the 2D cutoff
  Please refer to:
  Sohier, T., Calandra, M., & Mauri, F. (2017), 
  Density functional perturbation theory for gated two-dimensional heterostructu
 res:
  Theoretical developments and application to flexural phonons in graphene.
  Physical Review B, 96(7), 75448. https://doi.org/10.1103/PhysRevB.96.075448
 ----2D----2D----2D----2D----2D----2D----2D----2D----2D----2D----2D----2D

     The potential is recalculated from file :
     /fastscratch/tsievers/QE_TMP_DIR/_ph1/TaS2_24_ph_bench_nimages_2_n_procs_72_0.q_12/TaS2_24_ph_bench_nimages_2_n_procs_72_0.save/charge-density

     Starting wfcs are   27 atomic wfcs

     Band Structure Calculation
     Davidson diagonalization with overlap

     ethr =  5.88E-11,  avg # of iterations = 20.5

     total cpu time spent up to now is       66.4 secs

     End of band structure calculation

     Number of k-points >= 100: set verbosity='high' to print the bands.

     the Fermi energy is    -5.8804 ev

     Writing config to output data dir /fastscratch/tsievers/QE_TMP_DIR/_ph1/TaS2_24_ph_bench_nimages_2_n_procs_72_0.q_12/TaS2_24_ph_bench_nimages_2_n_procs_72_0.save/

     TaS2                                                                       

     bravais-lattice index     =            4
     lattice parameter (alat)  =       6.3117  a.u.
     unit-cell volume          =     977.9382 (a.u.)^3
     number of atoms/cell      =            3
     number of atomic types    =            2
     kinetic-energy cut-off    =      50.0000  Ry
     charge density cut-off    =     400.0000  Ry
     convergence threshold     =      1.0E-21
     beta                      =       0.7000
     number of iterations used =            4
     Exchange-correlation= PBE
                           (   1   4   3   4   0   0   0)


     celldm(1)=    6.31169  celldm(2)=    0.00000  celldm(3)=    4.49102
     celldm(4)=    0.00000  celldm(5)=    0.00000  celldm(6)=    0.00000

     crystal axes: (cart. coord. in units of alat)
               a(1) = (  1.0000  0.0000  0.0000 )  
               a(2) = ( -0.5000  0.8660  0.0000 )  
               a(3) = (  0.0000  0.0000  4.4910 )  

     reciprocal axes: (cart. coord. in units 2 pi/alat)
               b(1) = (  1.0000  0.5774  0.0000 )  
               b(2) = (  0.0000  1.1547  0.0000 )  
               b(3) = (  0.0000  0.0000  0.2227 )  


     Atoms inside the unit cell: 

     Cartesian axes

     site n.  atom      mass           positions (alat units)
        1     S   32.0600   tau(    1) = (   -0.00000    0.57735    0.46790  )
        2     Ta 180.9500   tau(    2) = (    0.00000    0.00000    0.00000  )
        3     S   32.0600   tau(    3) = (   -0.00000    0.57735   -0.46790  )

     Computing dynamical matrix for 
                    q = (   0.0833333   0.5292377   0.0000000 )
 
      2 Sym.Ops. (no q -> -q+G )


     G cutoff =  403.6370  (   7330 G-vectors)     FFT grid: ( 45, 45,192)
     G cutoff =  201.8185  (   2599 G-vectors)  smooth grid: ( 30, 30,128)

     number of k points=  1152  Marzari-Vanderbilt smearing, width (Ry)=  0.0060

     PseudoPot. # 1 for Ta read from file:
     /fastscratch/tsievers/TaS2_24_ph_benchmark_images//pseudos/Ta.pbe-hgh.UPF
     MD5 check sum: 129c51a9a4223465c43ca8d238d17e53
     Pseudo is Norm-conserving, Zval =  5.0
     Generated in analytical, separable form
     Using radial grid of 1273 points,  6 beta functions with: 
                l(1) =   0
                l(2) =   0
                l(3) =   1
                l(4) =   1
                l(5) =   2
                l(6) =   2

     PseudoPot. # 2 for S  read from file:
     /fastscratch/tsievers/TaS2_24_ph_benchmark_images//pseudos/S.pbe-hgh.UPF
     MD5 check sum: 3a21e384b95a7cc84d045d3bcc0c4ba8
     Pseudo is Norm-conserving, Zval =  6.0
     Generated in analytical, separable form
     Using radial grid of 1151 points,  3 beta functions with: 
                l(1) =   0
                l(2) =   0
                l(3) =   1

     Mode symmetry, C_s (m)     point group:


     Atomic displacements:
     There are    9 irreducible representations

     Representation     1      1 modes -  To be done

     Representation     2      1 modes -  To be done

     Representation     3      1 modes -  To be done

     Representation     4      1 modes -  To be done

     Representation     5      1 modes -  To be done

     Representation     6      1 modes -  To be done

     Representation     7      1 modes -  To be done

     Representation     8      1 modes -  To be done

     Representation     9      1 modes -  To be done



     Alpha used in Ewald sum =   2.8000
     PHONON       :   1m11.76s CPU   1m16.09s WALL



     Representation #   1 mode #   1

     Self-consistent Calculation

      iter #   1 total cpu time :    86.3 secs   av.it.:   8.9
      thresh= 1.000E-02 alpha_mix =  0.700 |ddv_scf|^2 =  4.730E-06

      iter #   2 total cpu time :   103.2 secs   av.it.:  17.0
      thresh= 2.175E-04 alpha_mix =  0.700 |ddv_scf|^2 =  6.021E-05

      iter #   3 total cpu time :   128.6 secs   av.it.:  14.8
      thresh= 7.759E-04 alpha_mix =  0.700 |ddv_scf|^2 =  1.878E-07

      iter #   4 total cpu time :   148.4 secs   av.it.:  15.6
      thresh= 4.334E-05 alpha_mix =  0.700 |ddv_scf|^2 =  7.695E-09

      iter #   5 total cpu time :   167.0 secs   av.it.:  16.0
      thresh= 8.772E-06 alpha_mix =  0.700 |ddv_scf|^2 =  8.404E-10

      iter #   6 total cpu time :   188.6 secs   av.it.:  16.1
      thresh= 2.899E-06 alpha_mix =  0.700 |ddv_scf|^2 =  7.372E-11

      iter #   7 total cpu time :   204.7 secs   av.it.:  16.5
      thresh= 8.586E-07 alpha_mix =  0.700 |ddv_scf|^2 =  1.017E-11

      iter #   8 total cpu time :   226.1 secs   av.it.:  16.2
      thresh= 3.189E-07 alpha_mix =  0.700 |ddv_scf|^2 =  3.950E-12

      iter #   9 total cpu time :   245.5 secs   av.it.:  16.2
      thresh= 1.987E-07 alpha_mix =  0.700 |ddv_scf|^2 =  9.825E-12

      iter #  10 total cpu time :   263.4 secs   av.it.:  15.2
      thresh= 3.134E-07 alpha_mix =  0.700 |ddv_scf|^2 =  1.135E-12

      iter #  11 total cpu time :   282.2 secs   av.it.:  15.3
      thresh= 1.065E-07 alpha_mix =  0.700 |ddv_scf|^2 =  1.061E-13

      iter #  12 total cpu time :   302.6 secs   av.it.:  15.8
      thresh= 3.257E-08 alpha_mix =  0.700 |ddv_scf|^2 =  1.220E-14

      iter #  13 total cpu time :   321.2 secs   av.it.:  15.8
      thresh= 1.104E-08 alpha_mix =  0.700 |ddv_scf|^2 =  2.112E-15

      iter #  14 total cpu time :   340.2 secs   av.it.:  16.0
      thresh= 4.596E-09 alpha_mix =  0.700 |ddv_scf|^2 =  3.841E-16

      iter #  15 total cpu time :   360.3 secs   av.it.:  17.4
      thresh= 1.960E-09 alpha_mix =  0.700 |ddv_scf|^2 =  2.911E-15

      iter #  16 total cpu time :   391.1 secs   av.it.:  14.8
      thresh= 5.395E-09 alpha_mix =  0.700 |ddv_scf|^2 =  2.399E-17

      iter #  17 total cpu time :   410.7 secs   av.it.:  16.9
      thresh= 4.898E-10 alpha_mix =  0.700 |ddv_scf|^2 =  3.408E-17

      iter #  18 total cpu time :   430.1 secs   av.it.:  15.7
      thresh= 5.838E-10 alpha_mix =  0.700 |ddv_scf|^2 =  5.868E-18

      iter #  19 total cpu time :   448.9 secs   av.it.:  15.6
      thresh= 2.422E-10 alpha_mix =  0.700 |ddv_scf|^2 =  1.772E-19

      iter #  20 total cpu time :   470.6 secs   av.it.:  16.9
      thresh= 4.210E-11 alpha_mix =  0.700 |ddv_scf|^2 =  1.582E-19

      iter #  21 total cpu time :   492.5 secs   av.it.:  16.0
      thresh= 3.978E-11 alpha_mix =  0.700 |ddv_scf|^2 =  6.703E-20

      iter #  22 total cpu time :   511.4 secs   av.it.:  16.3
      thresh= 2.589E-11 alpha_mix =  0.700 |ddv_scf|^2 =  1.325E-19

      iter #  23 total cpu time :   530.5 secs   av.it.:  15.4
      thresh= 3.640E-11 alpha_mix =  0.700 |ddv_scf|^2 =  7.323E-21

      iter #  24 total cpu time :   548.1 secs   av.it.:  15.9
      thresh= 8.557E-12 alpha_mix =  0.700 |ddv_scf|^2 =  2.046E-21

      iter #  25 total cpu time :   567.0 secs   av.it.:  15.8
      thresh= 4.524E-12 alpha_mix =  0.700 |ddv_scf|^2 =  1.258E-22

     End of self-consistent calculation

     Convergence has been achieved 


     Representation #   2 mode #   2

     Self-consistent Calculation

      iter #   1 total cpu time :   577.9 secs   av.it.:   7.5
      thresh= 1.000E-02 alpha_mix =  0.700 |ddv_scf|^2 =  1.044E-07

      iter #   2 total cpu time :   606.0 secs   av.it.:  17.1
      thresh= 3.231E-05 alpha_mix =  0.700 |ddv_scf|^2 =  8.492E-07

      iter #   3 total cpu time :   626.2 secs   av.it.:  15.0
      thresh= 9.215E-05 alpha_mix =  0.700 |ddv_scf|^2 =  2.975E-08

      iter #   4 total cpu time :   647.4 secs   av.it.:  15.7
      thresh= 1.725E-05 alpha_mix =  0.700 |ddv_scf|^2 =  1.629E-09

      iter #   5 total cpu time :   665.2 secs   av.it.:  16.0
      thresh= 4.036E-06 alpha_mix =  0.700 |ddv_scf|^2 =  1.055E-10

      iter #   6 total cpu time :   687.7 secs   av.it.:  16.3
      thresh= 1.027E-06 alpha_mix =  0.700 |ddv_scf|^2 =  6.200E-12

      iter #   7 total cpu time :   706.3 secs   av.it.:  17.1
      thresh= 2.490E-07 alpha_mix =  0.700 |ddv_scf|^2 =  3.529E-12

      iter #   8 total cpu time :   726.0 secs   av.it.:  16.3
      thresh= 1.879E-07 alpha_mix =  0.700 |ddv_scf|^2 =  6.383E-13

      iter #   9 total cpu time :   745.8 secs   av.it.:  16.2
      thresh= 7.990E-08 alpha_mix =  0.700 |ddv_scf|^2 =  8.914E-13

      iter #  10 total cpu time :   761.7 secs   av.it.:  15.5
      thresh= 9.442E-08 alpha_mix =  0.700 |ddv_scf|^2 =  1.800E-13

      iter #  11 total cpu time :   780.5 secs   av.it.:  16.0
      thresh= 4.243E-08 alpha_mix =  0.700 |ddv_scf|^2 =  3.895E-14

      iter #  12 total cpu time :   803.6 secs   av.it.:  16.2
      thresh= 1.974E-08 alpha_mix =  0.700 |ddv_scf|^2 =  4.601E-14

      iter #  13 total cpu time :   822.6 secs   av.it.:  15.2
      thresh= 2.145E-08 alpha_mix =  0.700 |ddv_scf|^2 =  4.767E-15

      iter #  14 total cpu time :   842.2 secs   av.it.:  16.1
      thresh= 6.904E-09 alpha_mix =  0.700 |ddv_scf|^2 =  7.419E-16

      iter #  15 total cpu time :   863.7 secs   av.it.:  17.0
      thresh= 2.724E-09 alpha_mix =  0.700 |ddv_scf|^2 =  2.474E-15

      iter #  16 total cpu time :   881.7 secs   av.it.:  15.3
      thresh= 4.974E-09 alpha_mix =  0.700 |ddv_scf|^2 =  6.019E-16

      iter #  17 total cpu time :   901.2 secs   av.it.:  15.6
      thresh= 2.453E-09 alpha_mix =  0.700 |ddv_scf|^2 =  9.711E-17

      iter #  18 total cpu time :   919.4 secs   av.it.:  16.3
      thresh= 9.854E-10 alpha_mix =  0.700 |ddv_scf|^2 =  1.436E-16

      iter #  19 total cpu time :   936.9 secs   av.it.:  15.3
      thresh= 1.198E-09 alpha_mix =  0.700 |ddv_scf|^2 =  2.433E-17

      iter #  20 total cpu time :   956.4 secs   av.it.:  15.7
      thresh= 4.933E-10 alpha_mix =  0.700 |ddv_scf|^2 =  1.944E-18

      iter #  21 total cpu time :   975.3 secs   av.it.:  16.8
      thresh= 1.394E-10 alpha_mix =  0.700 |ddv_scf|^2 =  8.415E-19

      iter #  22 total cpu time :   994.9 secs   av.it.:  16.9
      thresh= 9.173E-11 alpha_mix =  0.700 |ddv_scf|^2 =  4.549E-18

      iter #  23 total cpu time :  1012.1 secs   av.it.:  15.1
      thresh= 2.133E-10 alpha_mix =  0.700 |ddv_scf|^2 =  5.358E-19

      iter #  24 total cpu time :  1031.6 secs   av.it.:  15.4
      thresh= 7.320E-11 alpha_mix =  0.700 |ddv_scf|^2 =  6.214E-20

      iter #  25 total cpu time :  1051.9 secs   av.it.:  16.2
      thresh= 2.493E-11 alpha_mix =  0.700 |ddv_scf|^2 =  1.053E-19

      iter #  26 total cpu time :  1068.7 secs   av.it.:  15.5
      thresh= 3.245E-11 alpha_mix =  0.700 |ddv_scf|^2 =  8.563E-21

      iter #  27 total cpu time :  1089.2 secs   av.it.:  16.1
      thresh= 9.253E-12 alpha_mix =  0.700 |ddv_scf|^2 =  1.486E-21

      iter #  28 total cpu time :  1107.5 secs   av.it.:  16.3
      thresh= 3.855E-12 alpha_mix =  0.700 |ddv_scf|^2 =  5.402E-22

     End of self-consistent calculation

     Convergence has been achieved 


     Representation #   3 mode #   3

     Self-consistent Calculation

      iter #   1 total cpu time :  1119.2 secs   av.it.:   8.5
      thresh= 1.000E-02 alpha_mix =  0.700 |ddv_scf|^2 =  5.112E-07

      iter #   2 total cpu time :  1141.3 secs   av.it.:  16.8
      thresh= 7.150E-05 alpha_mix =  0.700 |ddv_scf|^2 =  6.291E-07

      iter #   3 total cpu time :  1164.6 secs   av.it.:  15.8
      thresh= 7.932E-05 alpha_mix =  0.700 |ddv_scf|^2 =  1.166E-07

      iter #   4 total cpu time :  1182.2 secs   av.it.:  15.3
      thresh= 3.414E-05 alpha_mix =  0.700 |ddv_scf|^2 =  2.853E-08

      iter #   5 total cpu time :  1199.4 secs   av.it.:  15.4
      thresh= 1.689E-05 alpha_mix =  0.700 |ddv_scf|^2 =  1.993E-09

      iter #   6 total cpu time :  1218.0 secs   av.it.:  16.0
      thresh= 4.464E-06 alpha_mix =  0.700 |ddv_scf|^2 =  1.128E-10

      iter #   7 total cpu time :  1236.2 secs   av.it.:  16.8
      thresh= 1.062E-06 alpha_mix =  0.700 |ddv_scf|^2 =  1.515E-11

      iter #   8 total cpu time :  1255.3 secs   av.it.:  16.4
      thresh= 3.893E-07 alpha_mix =  0.700 |ddv_scf|^2 =  4.885E-13

      iter #   9 total cpu time :  1274.9 secs   av.it.:  16.9
      thresh= 6.989E-08 alpha_mix =  0.700 |ddv_scf|^2 =  9.336E-13

      iter #  10 total cpu time :  1292.5 secs   av.it.:  15.6
      thresh= 9.662E-08 alpha_mix =  0.700 |ddv_scf|^2 =  4.323E-13

      iter #  11 total cpu time :  1310.2 secs   av.it.:  15.3
      thresh= 6.575E-08 alpha_mix =  0.700 |ddv_scf|^2 =  5.095E-14

      iter #  12 total cpu time :  1327.8 secs   av.it.:  15.6
      thresh= 2.257E-08 alpha_mix =  0.700 |ddv_scf|^2 =  6.094E-15

      iter #  13 total cpu time :  1346.7 secs   av.it.:  15.9
      thresh= 7.807E-09 alpha_mix =  0.700 |ddv_scf|^2 =  6.003E-15

      iter #  14 total cpu time :  1364.4 secs   av.it.:  15.2
      thresh= 7.748E-09 alpha_mix =  0.700 |ddv_scf|^2 =  3.462E-16

      iter #  15 total cpu time :  1383.6 secs   av.it.:  16.5
      thresh= 1.861E-09 alpha_mix =  0.700 |ddv_scf|^2 =  1.784E-16

      iter #  16 total cpu time :  1402.6 secs   av.it.:  15.8
      thresh= 1.336E-09 alpha_mix =  0.700 |ddv_scf|^2 =  2.947E-17

      iter #  17 total cpu time :  1421.3 secs   av.it.:  16.3
      thresh= 5.429E-10 alpha_mix =  0.700 |ddv_scf|^2 =  2.267E-17

      iter #  18 total cpu time :  1442.0 secs   av.it.:  16.0
      thresh= 4.761E-10 alpha_mix =  0.700 |ddv_scf|^2 =  1.919E-17

      iter #  19 total cpu time :  1458.9 secs   av.it.:  15.5
      thresh= 4.381E-10 alpha_mix =  0.700 |ddv_scf|^2 =  6.091E-18

      iter #  20 total cpu time :  1476.9 secs   av.it.:  15.3
      thresh= 2.468E-10 alpha_mix =  0.700 |ddv_scf|^2 =  7.182E-19

      iter #  21 total cpu time :  1495.5 secs   av.it.:  15.7
      thresh= 8.475E-11 alpha_mix =  0.700 |ddv_scf|^2 =  1.197E-19

      iter #  22 total cpu time :  1515.6 secs   av.it.:  16.6
      thresh= 3.460E-11 alpha_mix =  0.700 |ddv_scf|^2 =  2.276E-19

      iter #  23 total cpu time :  1533.8 secs   av.it.:  15.3
      thresh= 4.771E-11 alpha_mix =  0.700 |ddv_scf|^2 =  9.301E-21

      iter #  24 total cpu time :  1552.3 secs   av.it.:  16.7
      thresh= 9.644E-12 alpha_mix =  0.700 |ddv_scf|^2 =  2.163E-20

      iter #  25 total cpu time :  1569.3 secs   av.it.:  15.1
      thresh= 1.471E-11 alpha_mix =  0.700 |ddv_scf|^2 =  8.991E-22

     End of self-consistent calculation

     Convergence has been achieved 


     Representation #   4 mode #   4

     Self-consistent Calculation

      iter #   1 total cpu time :  1581.4 secs   av.it.:   8.2
      thresh= 1.000E-02 alpha_mix =  0.700 |ddv_scf|^2 =  1.104E-06

      iter #   2 total cpu time :  1600.2 secs   av.it.:  17.0
      thresh= 1.051E-04 alpha_mix =  0.700 |ddv_scf|^2 =  7.290E-06

      iter #   3 total cpu time :  1622.4 secs   av.it.:  15.1
      thresh= 2.700E-04 alpha_mix =  0.700 |ddv_scf|^2 =  6.080E-07

      iter #   4 total cpu time :  1638.8 secs   av.it.:  15.2
      thresh= 7.798E-05 alpha_mix =  0.700 |ddv_scf|^2 =  1.636E-09

      iter #   5 total cpu time :  1658.5 secs   av.it.:  16.4
      thresh= 4.045E-06 alpha_mix =  0.700 |ddv_scf|^2 =  2.056E-10

      iter #   6 total cpu time :  1676.6 secs   av.it.:  16.2
      thresh= 1.434E-06 alpha_mix =  0.700 |ddv_scf|^2 =  8.944E-12

      iter #   7 total cpu time :  1694.1 secs   av.it.:  16.5
      thresh= 2.991E-07 alpha_mix =  0.700 |ddv_scf|^2 =  1.540E-12

      iter #   8 total cpu time :  1714.0 secs   av.it.:  16.4
      thresh= 1.241E-07 alpha_mix =  0.700 |ddv_scf|^2 =  1.561E-12

      iter #   9 total cpu time :  1731.1 secs   av.it.:  15.6
      thresh= 1.249E-07 alpha_mix =  0.700 |ddv_scf|^2 =  6.343E-13

      iter #  10 total cpu time :  1750.3 secs   av.it.:  15.9
      thresh= 7.964E-08 alpha_mix =  0.700 |ddv_scf|^2 =  6.342E-13

      iter #  11 total cpu time :  1766.2 secs   av.it.:  15.1
      thresh= 7.964E-08 alpha_mix =  0.700 |ddv_scf|^2 =  8.782E-15

      iter #  12 total cpu time :  1786.1 secs   av.it.:  17.0
      thresh= 9.371E-09 alpha_mix =  0.700 |ddv_scf|^2 =  7.796E-15

      iter #  13 total cpu time :  1805.3 secs   av.it.:  16.3
      thresh= 8.830E-09 alpha_mix =  0.700 |ddv_scf|^2 =  1.765E-15

      iter #  14 total cpu time :  1821.6 secs   av.it.:  16.1
      thresh= 4.201E-09 alpha_mix =  0.700 |ddv_scf|^2 =  1.145E-15

      iter #  15 total cpu time :  1839.8 secs   av.it.:  16.0
      thresh= 3.383E-09 alpha_mix =  0.700 |ddv_scf|^2 =  1.426E-15

      iter #  16 total cpu time :  1857.1 secs   av.it.:  15.6
      thresh= 3.776E-09 alpha_mix =  0.700 |ddv_scf|^2 =  1.488E-15

      iter #  17 total cpu time :  1875.2 secs   av.it.:  15.0
      thresh= 3.857E-09 alpha_mix =  0.700 |ddv_scf|^2 =  4.251E-17

      iter #  18 total cpu time :  1893.0 secs   av.it.:  16.4
      thresh= 6.520E-10 alpha_mix =  0.700 |ddv_scf|^2 =  2.589E-17

      iter #  19 total cpu time :  1910.2 secs   av.it.:  15.9
      thresh= 5.088E-10 alpha_mix =  0.700 |ddv_scf|^2 =  5.321E-18

      iter #  20 total cpu time :  1930.4 secs   av.it.:  16.1
      thresh= 2.307E-10 alpha_mix =  0.700 |ddv_scf|^2 =  1.676E-18

      iter #  21 total cpu time :  1955.8 secs   av.it.:  16.6
      thresh= 1.295E-10 alpha_mix =  0.700 |ddv_scf|^2 =  3.539E-18

      iter #  22 total cpu time :  1972.4 secs   av.it.:  15.3
      thresh= 1.881E-10 alpha_mix =  0.700 |ddv_scf|^2 =  1.190E-18

      iter #  23 total cpu time :  2004.1 secs   av.it.:  16.1
      thresh= 1.091E-10 alpha_mix =  0.700 |ddv_scf|^2 =  7.771E-19

      iter #  24 total cpu time :  2025.2 secs   av.it.:  15.8
      thresh= 8.815E-11 alpha_mix =  0.700 |ddv_scf|^2 =  8.058E-20

      iter #  25 total cpu time :  2045.7 secs   av.it.:  15.8
      thresh= 2.839E-11 alpha_mix =  0.700 |ddv_scf|^2 =  2.093E-20

      iter #  26 total cpu time :  2064.0 secs   av.it.:  15.6
      thresh= 1.447E-11 alpha_mix =  0.700 |ddv_scf|^2 =  2.787E-21

      iter #  27 total cpu time :  2082.0 secs   av.it.:  16.0
      thresh= 5.279E-12 alpha_mix =  0.700 |ddv_scf|^2 =  1.202E-21

      iter #  28 total cpu time :  2103.1 secs   av.it.:  16.5
      thresh= 3.467E-12 alpha_mix =  0.700 |ddv_scf|^2 =  1.997E-21

      iter #  29 total cpu time :  2121.5 secs   av.it.:  15.4
      thresh= 4.469E-12 alpha_mix =  0.700 |ddv_scf|^2 =  1.005E-22

     End of self-consistent calculation

     Convergence has been achieved 


     Representation #   5 mode #   5

     Self-consistent Calculation

      iter #   1 total cpu time :  2132.0 secs   av.it.:   8.5
      thresh= 1.000E-02 alpha_mix =  0.700 |ddv_scf|^2 =  1.029E-06

      iter #   2 total cpu time :  2152.1 secs   av.it.:  17.1
      thresh= 1.014E-04 alpha_mix =  0.700 |ddv_scf|^2 =  1.193E-05

      iter #   3 total cpu time :  2175.2 secs   av.it.:  14.8
      thresh= 3.454E-04 alpha_mix =  0.700 |ddv_scf|^2 =  7.282E-08

      iter #   4 total cpu time :  2193.1 secs   av.it.:  15.9
      thresh= 2.699E-05 alpha_mix =  0.700 |ddv_scf|^2 =  3.552E-09

      iter #   5 total cpu time :  2212.1 secs   av.it.:  16.1
      thresh= 5.960E-06 alpha_mix =  0.700 |ddv_scf|^2 =  4.105E-10

      iter #   6 total cpu time :  2229.8 secs   av.it.:  16.1
      thresh= 2.026E-06 alpha_mix =  0.700 |ddv_scf|^2 =  3.418E-11

      iter #   7 total cpu time :  2248.6 secs   av.it.:  16.9
      thresh= 5.846E-07 alpha_mix =  0.700 |ddv_scf|^2 =  9.867E-12

      iter #   8 total cpu time :  2267.7 secs   av.it.:  16.3
      thresh= 3.141E-07 alpha_mix =  0.700 |ddv_scf|^2 =  2.042E-12

      iter #   9 total cpu time :  2286.3 secs   av.it.:  16.0
      thresh= 1.429E-07 alpha_mix =  0.700 |ddv_scf|^2 =  3.027E-12

      iter #  10 total cpu time :  2306.7 secs   av.it.:  15.3
      thresh= 1.740E-07 alpha_mix =  0.700 |ddv_scf|^2 =  1.810E-13

      iter #  11 total cpu time :  2323.6 secs   av.it.:  16.2
      thresh= 4.254E-08 alpha_mix =  0.700 |ddv_scf|^2 =  2.163E-13

      iter #  12 total cpu time :  2341.6 secs   av.it.:  15.1
      thresh= 4.650E-08 alpha_mix =  0.700 |ddv_scf|^2 =  1.214E-14

      iter #  13 total cpu time :  2359.7 secs   av.it.:  16.0
      thresh= 1.102E-08 alpha_mix =  0.700 |ddv_scf|^2 =  2.039E-15

      iter #  14 total cpu time :  2377.9 secs   av.it.:  16.3
      thresh= 4.516E-09 alpha_mix =  0.700 |ddv_scf|^2 =  5.549E-16

      iter #  15 total cpu time :  2397.8 secs   av.it.:  16.6
      thresh= 2.356E-09 alpha_mix =  0.700 |ddv_scf|^2 =  2.061E-15

      iter #  16 total cpu time :  2418.9 secs   av.it.:  15.1
      thresh= 4.540E-09 alpha_mix =  0.700 |ddv_scf|^2 =  1.207E-16

      iter #  17 total cpu time :  2441.5 secs   av.it.:  16.7
      thresh= 1.099E-09 alpha_mix =  0.700 |ddv_scf|^2 =  4.711E-16

      iter #  18 total cpu time :  2477.0 secs   av.it.:  14.9
      thresh= 2.171E-09 alpha_mix =  0.700 |ddv_scf|^2 =  1.465E-17

      iter #  19 total cpu time :  2495.1 secs   av.it.:  16.4
      thresh= 3.828E-10 alpha_mix =  0.700 |ddv_scf|^2 =  8.649E-18

      iter #  20 total cpu time :  2513.7 secs   av.it.:  16.0
      thresh= 2.941E-10 alpha_mix =  0.700 |ddv_scf|^2 =  1.627E-18

      iter #  21 total cpu time :  2532.3 secs   av.it.:  16.2
      thresh= 1.276E-10 alpha_mix =  0.700 |ddv_scf|^2 =  1.788E-18

      iter #  22 total cpu time :  2554.1 secs   av.it.:  15.3
      thresh= 1.337E-10 alpha_mix =  0.700 |ddv_scf|^2 =  2.959E-19

      iter #  23 total cpu time :  2571.0 secs   av.it.:  16.2
      thresh= 5.440E-11 alpha_mix =  0.700 |ddv_scf|^2 =  3.908E-19

      iter #  24 total cpu time :  2590.3 secs   av.it.:  15.2
      thresh= 6.251E-11 alpha_mix =  0.700 |ddv_scf|^2 =  4.931E-20

      iter #  25 total cpu time :  2610.8 secs   av.it.:  16.5
      thresh= 2.220E-11 alpha_mix =  0.700 |ddv_scf|^2 =  2.282E-20

      iter #  26 total cpu time :  2629.3 secs   av.it.:  16.4
      thresh= 1.511E-11 alpha_mix =  0.700 |ddv_scf|^2 =  1.564E-20

      iter #  27 total cpu time :  2648.7 secs   av.it.:  15.8
      thresh= 1.250E-11 alpha_mix =  0.700 |ddv_scf|^2 =  5.393E-21

      iter #  28 total cpu time :  2666.7 secs   av.it.:  15.7
      thresh= 7.344E-12 alpha_mix =  0.700 |ddv_scf|^2 =  2.220E-21

      iter #  29 total cpu time :  2697.8 secs   av.it.:  15.7
      thresh= 4.712E-12 alpha_mix =  0.700 |ddv_scf|^2 =  6.397E-22

     End of self-consistent calculation

     Convergence has been achieved 


     Representation #   6 mode #   6

     Self-consistent Calculation

      iter #   1 total cpu time :  2708.4 secs   av.it.:   8.3
      thresh= 1.000E-02 alpha_mix =  0.700 |ddv_scf|^2 =  6.480E-07

      iter #   2 total cpu time :  2726.5 secs   av.it.:  16.2
      thresh= 8.050E-05 alpha_mix =  0.700 |ddv_scf|^2 =  5.168E-07

      iter #   3 total cpu time :  2755.9 secs   av.it.:  15.4
      thresh= 7.189E-05 alpha_mix =  0.700 |ddv_scf|^2 =  7.274E-09

      iter #   4 total cpu time :  2774.7 secs   av.it.:  15.7
      thresh= 8.529E-06 alpha_mix =  0.700 |ddv_scf|^2 =  5.931E-10

      iter #   5 total cpu time :  2791.6 secs   av.it.:  15.6
      thresh= 2.435E-06 alpha_mix =  0.700 |ddv_scf|^2 =  1.704E-11

      iter #   6 total cpu time :  2809.9 secs   av.it.:  16.1
      thresh= 4.128E-07 alpha_mix =  0.700 |ddv_scf|^2 =  5.228E-14

      iter #   7 total cpu time :  2826.9 secs   av.it.:  15.9
      thresh= 2.287E-08 alpha_mix =  0.700 |ddv_scf|^2 =  3.389E-15

      iter #   8 total cpu time :  2847.5 secs   av.it.:  15.8
      thresh= 5.821E-09 alpha_mix =  0.700 |ddv_scf|^2 =  2.838E-16

      iter #   9 total cpu time :  2866.3 secs   av.it.:  16.1
      thresh= 1.685E-09 alpha_mix =  0.700 |ddv_scf|^2 =  1.392E-17

      iter #  10 total cpu time :  2885.3 secs   av.it.:  16.6
      thresh= 3.731E-10 alpha_mix =  0.700 |ddv_scf|^2 =  7.800E-18

      iter #  11 total cpu time :  2906.8 secs   av.it.:  15.9
      thresh= 2.793E-10 alpha_mix =  0.700 |ddv_scf|^2 =  6.300E-19

      iter #  12 total cpu time :  2924.5 secs   av.it.:  16.3
      thresh= 7.937E-11 alpha_mix =  0.700 |ddv_scf|^2 =  1.953E-19

      iter #  13 total cpu time :  2943.5 secs   av.it.:  15.8
      thresh= 4.419E-11 alpha_mix =  0.700 |ddv_scf|^2 =  1.391E-20

      iter #  14 total cpu time :  2966.8 secs   av.it.:  16.2
      thresh= 1.179E-11 alpha_mix =  0.700 |ddv_scf|^2 =  3.527E-21

      iter #  15 total cpu time :  2985.0 secs   av.it.:  15.9
      thresh= 5.939E-12 alpha_mix =  0.700 |ddv_scf|^2 =  2.194E-22

     End of self-consistent calculation

     Convergence has been achieved 


     Representation #   7 mode #   7

     Self-consistent Calculation

      iter #   1 total cpu time :  2995.7 secs   av.it.:   7.5
      thresh= 1.000E-02 alpha_mix =  0.700 |ddv_scf|^2 =  1.063E-07

      iter #   2 total cpu time :  3015.1 secs   av.it.:  16.6
      thresh= 3.261E-05 alpha_mix =  0.700 |ddv_scf|^2 =  1.096E-07

      iter #   3 total cpu time :  3038.8 secs   av.it.:  15.5
      thresh= 3.311E-05 alpha_mix =  0.700 |ddv_scf|^2 =  2.223E-09

      iter #   4 total cpu time :  3055.9 secs   av.it.:  15.8
      thresh= 4.715E-06 alpha_mix =  0.700 |ddv_scf|^2 =  1.894E-10

      iter #   5 total cpu time :  3078.3 secs   av.it.:  15.5
      thresh= 1.376E-06 alpha_mix =  0.700 |ddv_scf|^2 =  3.674E-12

      iter #   6 total cpu time :  3097.5 secs   av.it.:  16.0
      thresh= 1.917E-07 alpha_mix =  0.700 |ddv_scf|^2 =  1.101E-13

      iter #   7 total cpu time :  3127.1 secs   av.it.:  16.3
      thresh= 3.319E-08 alpha_mix =  0.700 |ddv_scf|^2 =  2.010E-15

      iter #   8 total cpu time :  3146.6 secs   av.it.:  16.2
      thresh= 4.484E-09 alpha_mix =  0.700 |ddv_scf|^2 =  3.360E-16

      iter #   9 total cpu time :  3170.8 secs   av.it.:  16.4
      thresh= 1.833E-09 alpha_mix =  0.700 |ddv_scf|^2 =  7.091E-17

      iter #  10 total cpu time :  3188.7 secs   av.it.:  16.3
      thresh= 8.421E-10 alpha_mix =  0.700 |ddv_scf|^2 =  1.709E-17

      iter #  11 total cpu time :  3208.5 secs   av.it.:  16.1
      thresh= 4.134E-10 alpha_mix =  0.700 |ddv_scf|^2 =  2.233E-18

      iter #  12 total cpu time :  3237.2 secs   av.it.:  16.0
      thresh= 1.494E-10 alpha_mix =  0.700 |ddv_scf|^2 =  2.520E-19

      iter #  13 total cpu time :  3256.5 secs   av.it.:  16.0
      thresh= 5.020E-11 alpha_mix =  0.700 |ddv_scf|^2 =  1.964E-20

      iter #  14 total cpu time :  3274.0 secs   av.it.:  16.0
      thresh= 1.401E-11 alpha_mix =  0.700 |ddv_scf|^2 =  2.535E-21

      iter #  15 total cpu time :  3297.5 secs   av.it.:  15.9
      thresh= 5.035E-12 alpha_mix =  0.700 |ddv_scf|^2 =  1.379E-22

     End of self-consistent calculation

     Convergence has been achieved 


     Representation #   8 mode #   8

     Self-consistent Calculation

      iter #   1 total cpu time :  3308.5 secs   av.it.:   8.0
      thresh= 1.000E-02 alpha_mix =  0.700 |ddv_scf|^2 =  1.681E-07

      iter #   2 total cpu time :  3328.3 secs   av.it.:  16.3
      thresh= 4.099E-05 alpha_mix =  0.700 |ddv_scf|^2 =  1.107E-07

      iter #   3 total cpu time :  3352.3 secs   av.it.:  15.8
      thresh= 3.327E-05 alpha_mix =  0.700 |ddv_scf|^2 =  1.201E-08

      iter #   4 total cpu time :  3369.1 secs   av.it.:  15.6
      thresh= 1.096E-05 alpha_mix =  0.700 |ddv_scf|^2 =  3.589E-10

      iter #   5 total cpu time :  3389.7 secs   av.it.:  15.7
      thresh= 1.894E-06 alpha_mix =  0.700 |ddv_scf|^2 =  3.867E-11

      iter #   6 total cpu time :  3409.4 secs   av.it.:  15.4
      thresh= 6.218E-07 alpha_mix =  0.700 |ddv_scf|^2 =  7.329E-14

      iter #   7 total cpu time :  3427.2 secs   av.it.:  15.5
      thresh= 2.707E-08 alpha_mix =  0.700 |ddv_scf|^2 =  7.719E-15

      iter #   8 total cpu time :  3450.2 secs   av.it.:  16.0
      thresh= 8.786E-09 alpha_mix =  0.700 |ddv_scf|^2 =  8.415E-16

      iter #   9 total cpu time :  3468.8 secs   av.it.:  16.1
      thresh= 2.901E-09 alpha_mix =  0.700 |ddv_scf|^2 =  2.513E-18

      iter #  10 total cpu time :  3486.6 secs   av.it.:  16.3
      thresh= 1.585E-10 alpha_mix =  0.700 |ddv_scf|^2 =  5.084E-19

      iter #  11 total cpu time :  3514.7 secs   av.it.:  16.2
      thresh= 7.131E-11 alpha_mix =  0.700 |ddv_scf|^2 =  2.256E-19

      iter #  12 total cpu time :  3534.5 secs   av.it.:  16.3
      thresh= 4.750E-11 alpha_mix =  0.700 |ddv_scf|^2 =  3.303E-20

      iter #  13 total cpu time :  3551.6 secs   av.it.:  16.0
      thresh= 1.818E-11 alpha_mix =  0.700 |ddv_scf|^2 =  4.633E-22

     End of self-consistent calculation

     Convergence has been achieved 


     Representation #   9 mode #   9

     Self-consistent Calculation

      iter #   1 total cpu time :  3568.5 secs   av.it.:   8.1
      thresh= 1.000E-02 alpha_mix =  0.700 |ddv_scf|^2 =  1.968E-07

      iter #   2 total cpu time :  3594.8 secs   av.it.:  16.4
      thresh= 4.436E-05 alpha_mix =  0.700 |ddv_scf|^2 =  1.209E-07

      iter #   3 total cpu time :  3612.1 secs   av.it.:  15.6
      thresh= 3.477E-05 alpha_mix =  0.700 |ddv_scf|^2 =  5.646E-09

      iter #   4 total cpu time :  3652.8 secs   av.it.:  15.9
      thresh= 7.514E-06 alpha_mix =  0.700 |ddv_scf|^2 =  6.028E-10

      iter #   5 total cpu time :  3670.2 secs   av.it.:  15.9
      thresh= 2.455E-06 alpha_mix =  0.700 |ddv_scf|^2 =  7.655E-11

      iter #   6 total cpu time :  3696.1 secs   av.it.:  15.7
      thresh= 8.749E-07 alpha_mix =  0.700 |ddv_scf|^2 =  4.259E-14

      iter #   7 total cpu time :  3721.8 secs   av.it.:  16.1
      thresh= 2.064E-08 alpha_mix =  0.700 |ddv_scf|^2 =  3.035E-15

      iter #   8 total cpu time :  3742.3 secs   av.it.:  16.0
      thresh= 5.509E-09 alpha_mix =  0.700 |ddv_scf|^2 =  2.798E-16

      iter #   9 total cpu time :  3787.0 secs   av.it.:  16.1
      thresh= 1.673E-09 alpha_mix =  0.700 |ddv_scf|^2 =  1.758E-17

      iter #  10 total cpu time :  3803.6 secs   av.it.:  16.2
      thresh= 4.192E-10 alpha_mix =  0.700 |ddv_scf|^2 =  2.403E-18

      iter #  11 total cpu time :  3843.6 secs   av.it.:  16.0
      thresh= 1.550E-10 alpha_mix =  0.700 |ddv_scf|^2 =  3.186E-19

      iter #  12 total cpu time :  3862.4 secs   av.it.:  16.3
      thresh= 5.644E-11 alpha_mix =  0.700 |ddv_scf|^2 =  1.115E-19

      iter #  13 total cpu time :  3897.5 secs   av.it.:  15.9
      thresh= 3.340E-11 alpha_mix =  0.700 |ddv_scf|^2 =  1.121E-20

      iter #  14 total cpu time :  3918.8 secs   av.it.:  16.1
      thresh= 1.059E-11 alpha_mix =  0.700 |ddv_scf|^2 =  1.207E-21

      iter #  15 total cpu time :  3943.8 secs   av.it.:  16.3
      thresh= 3.474E-12 alpha_mix =  0.700 |ddv_scf|^2 =  1.924E-22

     End of self-consistent calculation

     Convergence has been achieved 
 
     Number of q in the star =    6
     List of q in the star:
          1   0.083333333   0.529237747   0.000000000
          2  -0.500000000  -0.192450090   0.000000000
          3   0.416666667  -0.336787657   0.000000000
          4  -0.083333333   0.529237747   0.000000000
          5  -0.416666667  -0.336787657   0.000000000
          6   0.500000000  -0.192450090   0.000000000
     In addition there is the -q list: 
          1  -0.083333333  -0.529237747   0.000000000
          2   0.500000000   0.192450090   0.000000000
          3  -0.416666667   0.336787657   0.000000000
          4   0.083333333  -0.529237747   0.000000000
          5   0.416666667   0.336787657   0.000000000
          6  -0.500000000   0.192450090   0.000000000

     Diagonalizing the dynamical matrix

     q = (    0.083333333   0.529237747   0.000000000 ) 

 **************************************************************************
     freq (    1) =      -2.884387 [THz] =     -96.212799 [cm-1]
     freq (    2) =       2.441929 [THz] =      81.453994 [cm-1]
     freq (    3) =       3.334654 [THz] =     111.232090 [cm-1]
     freq (    4) =       6.995804 [THz] =     233.354918 [cm-1]
     freq (    5) =       8.364207 [THz] =     278.999900 [cm-1]
     freq (    6) =       9.253492 [THz] =     308.663277 [cm-1]
     freq (    7) =       9.519327 [THz] =     317.530566 [cm-1]
     freq (    8) =       9.792708 [THz] =     326.649565 [cm-1]
     freq (    9) =      11.428122 [THz] =     381.201131 [cm-1]
 **************************************************************************

     Mode symmetry, C_s (m)     point group:

     freq (   1-   1) =        -96.2  [cm-1]   --> A'                 
     freq (   2-   2) =         81.5  [cm-1]   --> A''                
     freq (   3-   3) =        111.2  [cm-1]   --> A'                 
     freq (   4-   4) =        233.4  [cm-1]   --> A'                 
     freq (   5-   5) =        279.0  [cm-1]   --> A''                
     freq (   6-   6) =        308.7  [cm-1]   --> A''                
     freq (   7-   7) =        317.5  [cm-1]   --> A'                 
     freq (   8-   8) =        326.6  [cm-1]   --> A''                
     freq (   9-   9) =        381.2  [cm-1]   --> A'                 

     Calculation of q =    0.1666667   0.2886751   0.0000000
 
     Parallelization info
     --------------------
     sticks:   dense  smooth     PW     G-vecs:    dense   smooth      PW
     Min          60      31     10                 7329     2593     474
     Max          62      32     11                 7342     2605     490
     Sum        1099     559    187               132031    46753    8599
 
     Using Slab Decomposition
 

     Title: 
     TaS2                                                                       


     bravais-lattice index     =            4
     lattice parameter (alat)  =       6.3117  a.u.
     unit-cell volume          =     977.9382 (a.u.)^3
     number of atoms/cell      =            3
     number of atomic types    =            2
     number of electrons       =        17.00
     number of Kohn-Sham states=           13
     kinetic-energy cutoff     =      50.0000  Ry
     charge density cutoff     =     400.0000  Ry
     Exchange-correlation= PBE
                           (   1   4   3   4   0   0   0)

     celldm(1)=   6.311685  celldm(2)=   0.000000  celldm(3)=   4.491018
     celldm(4)=   0.000000  celldm(5)=   0.000000  celldm(6)=   0.000000

     crystal axes: (cart. coord. in units of alat)
               a(1) = (   1.000000   0.000000   0.000000 )  
               a(2) = (  -0.500000   0.866025   0.000000 )  
               a(3) = (   0.000000   0.000000   4.491018 )  

     reciprocal axes: (cart. coord. in units 2 pi/alat)
               b(1) = (  1.000000  0.577350  0.000000 )  
               b(2) = (  0.000000  1.154701  0.000000 )  
               b(3) = (  0.000000  0.000000  0.222667 )  


     PseudoPot. # 1 for Ta read from file:
     /fastscratch/tsievers/TaS2_24_ph_benchmark_images//pseudos/Ta.pbe-hgh.UPF
     MD5 check sum: 129c51a9a4223465c43ca8d238d17e53
     Pseudo is Norm-conserving, Zval =  5.0
     Generated in analytical, separable form
     Using radial grid of 1273 points,  6 beta functions with: 
                l(1) =   0
                l(2) =   0
                l(3) =   1
                l(4) =   1
                l(5) =   2
                l(6) =   2

     PseudoPot. # 2 for S  read from file:
     /fastscratch/tsievers/TaS2_24_ph_benchmark_images//pseudos/S.pbe-hgh.UPF
     MD5 check sum: 3a21e384b95a7cc84d045d3bcc0c4ba8
     Pseudo is Norm-conserving, Zval =  6.0
     Generated in analytical, separable form
     Using radial grid of 1151 points,  3 beta functions with: 
                l(1) =   0
                l(2) =   0
                l(3) =   1

     atomic species   valence    mass     pseudopotential
        Ta             5.00   180.95000     Ta( 1.00)
        S              6.00    32.06000     S ( 1.00)

     12 Sym. Ops. (no inversion) found



   Cartesian axes

     site n.     atom                  positions (alat units)
         1           S   tau(   1) = (  -0.0000000   0.5773503   0.4679048  )
         2           Ta  tau(   2) = (   0.0000000   0.0000000   0.0000000  )
         3           S   tau(   3) = (  -0.0000000   0.5773503  -0.4679048  )

     number of k points=  1152  Marzari-Vanderbilt smearing, width (Ry)=  0.0060

     Number of k-points >= 100: set verbosity='high' to print them.

     Dense  grid:   132031 G-vectors     FFT dimensions: (  45,  45, 192)

     Smooth grid:    46753 G-vectors     FFT dimensions: (  30,  30, 128)

     Estimated max dynamical RAM per process >       6.85 MB

     Estimated total dynamical RAM >     246.64 MB
 ----2D----2D----2D----2D----2D----2D----2D----2D----2D----2D----2D----2D
  The code is running with the 2D cutoff
  Please refer to:
  Sohier, T., Calandra, M., & Mauri, F. (2017), 
  Density functional perturbation theory for gated two-dimensional heterostructu
 res:
  Theoretical developments and application to flexural phonons in graphene.
  Physical Review B, 96(7), 75448. https://doi.org/10.1103/PhysRevB.96.075448
 ----2D----2D----2D----2D----2D----2D----2D----2D----2D----2D----2D----2D

     The potential is recalculated from file :
     /fastscratch/tsievers/QE_TMP_DIR/_ph1/TaS2_24_ph_bench_nimages_2_n_procs_72_0.q_13/TaS2_24_ph_bench_nimages_2_n_procs_72_0.save/charge-density

     Starting wfcs are   27 atomic wfcs

     Band Structure Calculation
     Davidson diagonalization with overlap

     ethr =  5.88E-11,  avg # of iterations = 20.5

     total cpu time spent up to now is      148.9 secs

     End of band structure calculation

     Number of k-points >= 100: set verbosity='high' to print the bands.

     the Fermi energy is    -5.8804 ev

     Writing config to output data dir /fastscratch/tsievers/QE_TMP_DIR/_ph1/TaS2_24_ph_bench_nimages_2_n_procs_72_0.q_13/TaS2_24_ph_bench_nimages_2_n_procs_72_0.save/

     TaS2                                                                       

     bravais-lattice index     =            4
     lattice parameter (alat)  =       6.3117  a.u.
     unit-cell volume          =     977.9382 (a.u.)^3
     number of atoms/cell      =            3
     number of atomic types    =            2
     kinetic-energy cut-off    =      50.0000  Ry
     charge density cut-off    =     400.0000  Ry
     convergence threshold     =      1.0E-21
     beta                      =       0.7000
     number of iterations used =            4
     Exchange-correlation= PBE
                           (   1   4   3   4   0   0   0)


     celldm(1)=    6.31169  celldm(2)=    0.00000  celldm(3)=    4.49102
     celldm(4)=    0.00000  celldm(5)=    0.00000  celldm(6)=    0.00000

     crystal axes: (cart. coord. in units of alat)
               a(1) = (  1.0000  0.0000  0.0000 )  
               a(2) = ( -0.5000  0.8660  0.0000 )  
               a(3) = (  0.0000  0.0000  4.4910 )  

     reciprocal axes: (cart. coord. in units 2 pi/alat)
               b(1) = (  1.0000  0.5774  0.0000 )  
               b(2) = (  0.0000  1.1547  0.0000 )  
               b(3) = (  0.0000  0.0000  0.2227 )  


     Atoms inside the unit cell: 

     Cartesian axes

     site n.  atom      mass           positions (alat units)
        1     S   32.0600   tau(    1) = (   -0.00000    0.57735    0.46790  )
        2     Ta 180.9500   tau(    2) = (    0.00000    0.00000    0.00000  )
        3     S   32.0600   tau(    3) = (   -0.00000    0.57735   -0.46790  )

     Computing dynamical matrix for 
                    q = (   0.1666667   0.2886751   0.0000000 )
 
      2 Sym.Ops. (no q -> -q+G )


     G cutoff =  403.6370  (   7330 G-vectors)     FFT grid: ( 45, 45,192)
     G cutoff =  201.8185  (   2599 G-vectors)  smooth grid: ( 30, 30,128)

     number of k points=  1152  Marzari-Vanderbilt smearing, width (Ry)=  0.0060

     PseudoPot. # 1 for Ta read from file:
     /fastscratch/tsievers/TaS2_24_ph_benchmark_images//pseudos/Ta.pbe-hgh.UPF
     MD5 check sum: 129c51a9a4223465c43ca8d238d17e53
     Pseudo is Norm-conserving, Zval =  5.0
     Generated in analytical, separable form
     Using radial grid of 1273 points,  6 beta functions with: 
                l(1) =   0
                l(2) =   0
                l(3) =   1
                l(4) =   1
                l(5) =   2
                l(6) =   2

     PseudoPot. # 2 for S  read from file:
     /fastscratch/tsievers/TaS2_24_ph_benchmark_images//pseudos/S.pbe-hgh.UPF
     MD5 check sum: 3a21e384b95a7cc84d045d3bcc0c4ba8
     Pseudo is Norm-conserving, Zval =  6.0
     Generated in analytical, separable form
     Using radial grid of 1151 points,  3 beta functions with: 
                l(1) =   0
                l(2) =   0
                l(3) =   1

     Mode symmetry, C_s (m)     point group:


     Atomic displacements:
     There are    9 irreducible representations

     Representation     1      1 modes -  To be done

     Representation     2      1 modes -  To be done

     Representation     3      1 modes -  To be done

     Representation     4      1 modes -  To be done

     Representation     5      1 modes -  To be done

     Representation     6      1 modes -  To be done

     Representation     7      1 modes -  To be done

     Representation     8      1 modes -  To be done

     Representation     9      1 modes -  To be done



     Alpha used in Ewald sum =   2.8000
     PHONON       :      1h 2m CPU      1h 7m WALL



     Representation #   1 mode #   1

     Self-consistent Calculation

      iter #   1 total cpu time :  4045.5 secs   av.it.:   8.9
      thresh= 1.000E-02 alpha_mix =  0.700 |ddv_scf|^2 =  3.237E-05

      iter #   2 total cpu time :  4086.2 secs   av.it.:  16.4
      thresh= 5.689E-04 alpha_mix =  0.700 |ddv_scf|^2 =  2.815E-03

      iter #   3 total cpu time :  4101.4 secs   av.it.:  12.7
      thresh= 5.306E-03 alpha_mix =  0.700 |ddv_scf|^2 =  8.730E-07

      iter #   4 total cpu time :  4119.3 secs   av.it.:  15.4
      thresh= 9.344E-05 alpha_mix =  0.700 |ddv_scf|^2 =  2.961E-07

      iter #   5 total cpu time :  4166.1 secs   av.it.:  14.7
      thresh= 5.441E-05 alpha_mix =  0.700 |ddv_scf|^2 =  1.636E-09

      iter #   6 total cpu time :  4213.2 secs   av.it.:  16.3
      thresh= 4.044E-06 alpha_mix =  0.700 |ddv_scf|^2 =  9.704E-11

      iter #   7 total cpu time :  4232.2 secs   av.it.:  16.3
      thresh= 9.851E-07 alpha_mix =  0.700 |ddv_scf|^2 =  2.241E-09

      iter #   8 total cpu time :  4273.2 secs   av.it.:  13.4
      thresh= 4.734E-06 alpha_mix =  0.700 |ddv_scf|^2 =  1.093E-10

      iter #   9 total cpu time :  4297.4 secs   av.it.:  14.4
      thresh= 1.046E-06 alpha_mix =  0.700 |ddv_scf|^2 =  1.983E-11

      iter #  10 total cpu time :  4345.0 secs   av.it.:  14.4
      thresh= 4.453E-07 alpha_mix =  0.700 |ddv_scf|^2 =  4.062E-13

      iter #  11 total cpu time :  4382.7 secs   av.it.:  16.0
      thresh= 6.373E-08 alpha_mix =  0.700 |ddv_scf|^2 =  3.101E-13

      iter #  12 total cpu time :  4407.2 secs   av.it.:  15.7
      thresh= 5.568E-08 alpha_mix =  0.700 |ddv_scf|^2 =  8.111E-13

      iter #  13 total cpu time :  4433.5 secs   av.it.:  14.2
      thresh= 9.006E-08 alpha_mix =  0.700 |ddv_scf|^2 =  1.173E-14

      iter #  14 total cpu time :  4449.0 secs   av.it.:  15.0
      thresh= 1.083E-08 alpha_mix =  0.700 |ddv_scf|^2 =  9.364E-15

      iter #  15 total cpu time :  4502.5 secs   av.it.:  14.7
      thresh= 9.677E-09 alpha_mix =  0.700 |ddv_scf|^2 =  5.645E-14

      iter #  16 total cpu time :  4546.1 secs   av.it.:  13.3
      thresh= 2.376E-08 alpha_mix =  0.700 |ddv_scf|^2 =  4.137E-16

      iter #  17 total cpu time :  4575.0 secs   av.it.:  15.3
      thresh= 2.034E-09 alpha_mix =  0.700 |ddv_scf|^2 =  2.136E-16

      iter #  18 total cpu time :  4616.1 secs   av.it.:  14.7
      thresh= 1.461E-09 alpha_mix =  0.700 |ddv_scf|^2 =  4.844E-18

      iter #  19 total cpu time :  4654.4 secs   av.it.:  15.5
      thresh= 2.201E-10 alpha_mix =  0.700 |ddv_scf|^2 =  5.998E-19

      iter #  20 total cpu time :  4698.8 secs   av.it.:  15.0
      thresh= 7.745E-11 alpha_mix =  0.700 |ddv_scf|^2 =  1.966E-20

      iter #  21 total cpu time :  4725.9 secs   av.it.:  16.2
      thresh= 1.402E-11 alpha_mix =  0.700 |ddv_scf|^2 =  1.754E-19

      iter #  22 total cpu time :  4762.3 secs   av.it.:  13.8
      thresh= 4.188E-11 alpha_mix =  0.700 |ddv_scf|^2 =  1.534E-21

      iter #  23 total cpu time :  4780.3 secs   av.it.:  16.2
      thresh= 3.916E-12 alpha_mix =  0.700 |ddv_scf|^2 =  1.211E-20

      iter #  24 total cpu time :  4840.5 secs   av.it.:  13.8
      thresh= 1.100E-11 alpha_mix =  0.700 |ddv_scf|^2 =  3.487E-22

     End of self-consistent calculation

     Convergence has been achieved 


     Representation #   2 mode #   2

     Self-consistent Calculation

      iter #   1 total cpu time :  4850.4 secs   av.it.:   8.0
      thresh= 1.000E-02 alpha_mix =  0.700 |ddv_scf|^2 =  9.679E-06

      iter #   2 total cpu time :  4893.3 secs   av.it.:  16.4
      thresh= 3.111E-04 alpha_mix =  0.700 |ddv_scf|^2 =  8.515E-04

      iter #   3 total cpu time :  4923.7 secs   av.it.:  12.7
      thresh= 2.918E-03 alpha_mix =  0.700 |ddv_scf|^2 =  1.401E-07

      iter #   4 total cpu time :  4942.3 secs   av.it.:  15.6
      thresh= 3.743E-05 alpha_mix =  0.700 |ddv_scf|^2 =  8.443E-08

      iter #   5 total cpu time :  4992.0 secs   av.it.:  14.6
      thresh= 2.906E-05 alpha_mix =  0.700 |ddv_scf|^2 =  5.657E-09

      iter #   6 total cpu time :  5043.3 secs   av.it.:  14.5
      thresh= 7.522E-06 alpha_mix =  0.700 |ddv_scf|^2 =  7.820E-12

      iter #   7 total cpu time :  5076.0 secs   av.it.:  16.3
      thresh= 2.796E-07 alpha_mix =  0.700 |ddv_scf|^2 =  9.929E-12

      iter #   8 total cpu time :  5091.9 secs   av.it.:  15.5
      thresh= 3.151E-07 alpha_mix =  0.700 |ddv_scf|^2 =  9.750E-11

      iter #   9 total cpu time :  5113.1 secs   av.it.:  13.8
      thresh= 9.874E-07 alpha_mix =  0.700 |ddv_scf|^2 =  2.757E-12

      iter #  10 total cpu time :  5129.4 secs   av.it.:  15.1
      thresh= 1.660E-07 alpha_mix =  0.700 |ddv_scf|^2 =  1.825E-14

      iter #  11 total cpu time :  5150.1 secs   av.it.:  15.8
      thresh= 1.351E-08 alpha_mix =  0.700 |ddv_scf|^2 =  2.431E-14

      iter #  12 total cpu time :  5170.2 secs   av.it.:  14.7
      thresh= 1.559E-08 alpha_mix =  0.700 |ddv_scf|^2 =  7.415E-15

      iter #  13 total cpu time :  5187.2 secs   av.it.:  14.2
      thresh= 8.611E-09 alpha_mix =  0.700 |ddv_scf|^2 =  1.044E-15

      iter #  14 total cpu time :  5208.1 secs   av.it.:  16.0
      thresh= 3.231E-09 alpha_mix =  0.700 |ddv_scf|^2 =  7.688E-16

      iter #  15 total cpu time :  5224.3 secs   av.it.:  14.3
      thresh= 2.773E-09 alpha_mix =  0.700 |ddv_scf|^2 =  3.661E-17

      iter #  16 total cpu time :  5243.1 secs   av.it.:  15.4
      thresh= 6.051E-10 alpha_mix =  0.700 |ddv_scf|^2 =  1.676E-17

      iter #  17 total cpu time :  5263.4 secs   av.it.:  14.5
      thresh= 4.093E-10 alpha_mix =  0.700 |ddv_scf|^2 =  2.058E-18

      iter #  18 total cpu time :  5281.7 secs   av.it.:  14.8
      thresh= 1.434E-10 alpha_mix =  0.700 |ddv_scf|^2 =  1.355E-19

      iter #  19 total cpu time :  5302.7 secs   av.it.:  16.5
      thresh= 3.681E-11 alpha_mix =  0.700 |ddv_scf|^2 =  1.951E-19

      iter #  20 total cpu time :  5323.4 secs   av.it.:  14.8
      thresh= 4.417E-11 alpha_mix =  0.700 |ddv_scf|^2 =  2.792E-20

      iter #  21 total cpu time :  5341.2 secs   av.it.:  15.1
      thresh= 1.671E-11 alpha_mix =  0.700 |ddv_scf|^2 =  4.137E-21

      iter #  22 total cpu time :  5362.4 secs   av.it.:  15.9
      thresh= 6.432E-12 alpha_mix =  0.700 |ddv_scf|^2 =  1.178E-20

      iter #  23 total cpu time :  5377.6 secs   av.it.:  13.8
      thresh= 1.085E-11 alpha_mix =  0.700 |ddv_scf|^2 =  3.803E-22

     End of self-consistent calculation

     Convergence has been achieved 


     Representation #   3 mode #   3

     Self-consistent Calculation

      iter #   1 total cpu time :  5391.1 secs   av.it.:   8.9
      thresh= 1.000E-02 alpha_mix =  0.700 |ddv_scf|^2 =  1.110E-05

      iter #   2 total cpu time :  5412.7 secs   av.it.:  16.7
      thresh= 3.331E-04 alpha_mix =  0.700 |ddv_scf|^2 =  1.086E-03

      iter #   3 total cpu time :  5431.9 secs   av.it.:  12.7
      thresh= 3.295E-03 alpha_mix =  0.700 |ddv_scf|^2 =  2.470E-06

      iter #   4 total cpu time :  5451.4 secs   av.it.:  15.1
      thresh= 1.572E-04 alpha_mix =  0.700 |ddv_scf|^2 =  3.566E-07

      iter #   5 total cpu time :  5468.0 secs   av.it.:  14.6
      thresh= 5.972E-05 alpha_mix =  0.700 |ddv_scf|^2 =  3.241E-08

      iter #   6 total cpu time :  5487.0 secs   av.it.:  14.7
      thresh= 1.800E-05 alpha_mix =  0.700 |ddv_scf|^2 =  4.771E-11

      iter #   7 total cpu time :  5504.6 secs   av.it.:  16.3
      thresh= 6.907E-07 alpha_mix =  0.700 |ddv_scf|^2 =  1.197E-09

      iter #   8 total cpu time :  5521.9 secs   av.it.:  13.3
      thresh= 3.459E-06 alpha_mix =  0.700 |ddv_scf|^2 =  2.186E-11

      iter #   9 total cpu time :  5540.6 secs   av.it.:  16.1
      thresh= 4.675E-07 alpha_mix =  0.700 |ddv_scf|^2 =  9.657E-12

      iter #  10 total cpu time :  5559.6 secs   av.it.:  15.2
      thresh= 3.108E-07 alpha_mix =  0.700 |ddv_scf|^2 =  3.043E-12

      iter #  11 total cpu time :  5579.5 secs   av.it.:  14.1
      thresh= 1.744E-07 alpha_mix =  0.700 |ddv_scf|^2 =  9.757E-14

      iter #  12 total cpu time :  5598.0 secs   av.it.:  15.2
      thresh= 3.124E-08 alpha_mix =  0.700 |ddv_scf|^2 =  2.474E-14

      iter #  13 total cpu time :  5615.8 secs   av.it.:  14.4
      thresh= 1.573E-08 alpha_mix =  0.700 |ddv_scf|^2 =  1.059E-15

      iter #  14 total cpu time :  5634.2 secs   av.it.:  15.4
      thresh= 3.254E-09 alpha_mix =  0.700 |ddv_scf|^2 =  8.208E-16

      iter #  15 total cpu time :  5652.6 secs   av.it.:  14.5
      thresh= 2.865E-09 alpha_mix =  0.700 |ddv_scf|^2 =  1.217E-15

      iter #  16 total cpu time :  5671.6 secs   av.it.:  14.1
      thresh= 3.488E-09 alpha_mix =  0.700 |ddv_scf|^2 =  2.221E-16

      iter #  17 total cpu time :  5691.0 secs   av.it.:  15.0
      thresh= 1.490E-09 alpha_mix =  0.700 |ddv_scf|^2 =  6.433E-17

      iter #  18 total cpu time :  5713.3 secs   av.it.:  14.9
      thresh= 8.021E-10 alpha_mix =  0.700 |ddv_scf|^2 =  9.565E-18

      iter #  19 total cpu time :  5731.9 secs   av.it.:  14.8
      thresh= 3.093E-10 alpha_mix =  0.700 |ddv_scf|^2 =  2.216E-18

      iter #  20 total cpu time :  5750.4 secs   av.it.:  14.4
      thresh= 1.488E-10 alpha_mix =  0.700 |ddv_scf|^2 =  2.896E-19

      iter #  21 total cpu time :  5769.8 secs   av.it.:  15.1
      thresh= 5.382E-11 alpha_mix =  0.700 |ddv_scf|^2 =  8.145E-20

      iter #  22 total cpu time :  5788.8 secs   av.it.:  15.2
      thresh= 2.854E-11 alpha_mix =  0.700 |ddv_scf|^2 =  4.047E-21

      iter #  23 total cpu time :  5809.1 secs   av.it.:  16.1
      thresh= 6.362E-12 alpha_mix =  0.700 |ddv_scf|^2 =  1.528E-21

      iter #  24 total cpu time :  5827.1 secs   av.it.:  14.8
      thresh= 3.909E-12 alpha_mix =  0.700 |ddv_scf|^2 =  3.452E-23

     End of self-consistent calculation

     Convergence has been achieved 


     Representation #   4 mode #   4

     Self-consistent Calculation

      iter #   1 total cpu time :  5841.2 secs   av.it.:   8.3
      thresh= 1.000E-02 alpha_mix =  0.700 |ddv_scf|^2 =  1.748E-05

      iter #   2 total cpu time :  5859.7 secs   av.it.:  16.4
      thresh= 4.180E-04 alpha_mix =  0.700 |ddv_scf|^2 =  1.542E-03

      iter #   3 total cpu time :  5881.0 secs   av.it.:  12.8
      thresh= 3.927E-03 alpha_mix =  0.700 |ddv_scf|^2 =  2.173E-07

      iter #   4 total cpu time :  5898.0 secs   av.it.:  15.6
      thresh= 4.661E-05 alpha_mix =  0.700 |ddv_scf|^2 =  1.567E-07

      iter #   5 total cpu time :  5916.6 secs   av.it.:  14.4
      thresh= 3.958E-05 alpha_mix =  0.700 |ddv_scf|^2 =  6.748E-09

      iter #   6 total cpu time :  5932.4 secs   av.it.:  14.6
      thresh= 8.214E-06 alpha_mix =  0.700 |ddv_scf|^2 =  7.568E-12

      iter #   7 total cpu time :  5952.7 secs   av.it.:  16.4
      thresh= 2.751E-07 alpha_mix =  0.700 |ddv_scf|^2 =  1.526E-11

      iter #   8 total cpu time :  5970.4 secs   av.it.:  15.1
      thresh= 3.906E-07 alpha_mix =  0.700 |ddv_scf|^2 =  9.713E-11

      iter #   9 total cpu time :  5987.8 secs   av.it.:  13.7
      thresh= 9.856E-07 alpha_mix =  0.700 |ddv_scf|^2 =  1.955E-12

      iter #  10 total cpu time :  6006.0 secs   av.it.:  15.5
      thresh= 1.398E-07 alpha_mix =  0.700 |ddv_scf|^2 =  1.008E-13

      iter #  11 total cpu time :  6024.2 secs   av.it.:  15.6
      thresh= 3.176E-08 alpha_mix =  0.700 |ddv_scf|^2 =  4.392E-14

      iter #  12 total cpu time :  6042.6 secs   av.it.:  14.4
      thresh= 2.096E-08 alpha_mix =  0.700 |ddv_scf|^2 =  1.288E-14

      iter #  13 total cpu time :  6070.0 secs   av.it.:  14.7
      thresh= 1.135E-08 alpha_mix =  0.700 |ddv_scf|^2 =  2.112E-15

      iter #  14 total cpu time :  6087.3 secs   av.it.:  16.3
      thresh= 4.596E-09 alpha_mix =  0.700 |ddv_scf|^2 =  2.989E-14

      iter #  15 total cpu time :  6103.4 secs   av.it.:  13.4
      thresh= 1.729E-08 alpha_mix =  0.700 |ddv_scf|^2 =  3.411E-16

      iter #  16 total cpu time :  6122.3 secs   av.it.:  15.5
      thresh= 1.847E-09 alpha_mix =  0.700 |ddv_scf|^2 =  3.319E-16

      iter #  17 total cpu time :  6139.6 secs   av.it.:  13.8
      thresh= 1.822E-09 alpha_mix =  0.700 |ddv_scf|^2 =  6.420E-17

      iter #  18 total cpu time :  6157.3 secs   av.it.:  15.5
      thresh= 8.012E-10 alpha_mix =  0.700 |ddv_scf|^2 =  9.609E-18

      iter #  19 total cpu time :  6174.1 secs   av.it.:  14.9
      thresh= 3.100E-10 alpha_mix =  0.700 |ddv_scf|^2 =  2.648E-18

      iter #  20 total cpu time :  6193.3 secs   av.it.:  15.0
      thresh= 1.627E-10 alpha_mix =  0.700 |ddv_scf|^2 =  2.783E-19

      iter #  21 total cpu time :  6210.8 secs   av.it.:  15.8
      thresh= 5.275E-11 alpha_mix =  0.700 |ddv_scf|^2 =  1.245E-18

      iter #  22 total cpu time :  6228.1 secs   av.it.:  13.6
      thresh= 1.116E-10 alpha_mix =  0.700 |ddv_scf|^2 =  3.955E-20

      iter #  23 total cpu time :  6244.0 secs   av.it.:  14.7
      thresh= 1.989E-11 alpha_mix =  0.700 |ddv_scf|^2 =  3.641E-21

      iter #  24 total cpu time :  6262.2 secs   av.it.:  14.7
      thresh= 6.034E-12 alpha_mix =  0.700 |ddv_scf|^2 =  2.993E-21

      iter #  25 total cpu time :  6277.9 secs   av.it.:  13.8
      thresh= 5.471E-12 alpha_mix =  0.700 |ddv_scf|^2 =  3.256E-22

     End of self-consistent calculation

     Convergence has been achieved 


     Representation #   5 mode #   5

     Self-consistent Calculation

      iter #   1 total cpu time :  6290.9 secs   av.it.:   8.9
      thresh= 1.000E-02 alpha_mix =  0.700 |ddv_scf|^2 =  3.155E-05

      iter #   2 total cpu time :  6310.1 secs   av.it.:  16.4
      thresh= 5.617E-04 alpha_mix =  0.700 |ddv_scf|^2 =  2.753E-03

      iter #   3 total cpu time :  6332.7 secs   av.it.:  12.7
      thresh= 5.247E-03 alpha_mix =  0.700 |ddv_scf|^2 =  7.189E-07

      iter #   4 total cpu time :  6349.7 secs   av.it.:  15.4
      thresh= 8.479E-05 alpha_mix =  0.700 |ddv_scf|^2 =  2.682E-07

      iter #   5 total cpu time :  6367.8 secs   av.it.:  14.7
      thresh= 5.179E-05 alpha_mix =  0.700 |ddv_scf|^2 =  3.197E-09

      iter #   6 total cpu time :  6387.4 secs   av.it.:  15.9
      thresh= 5.654E-06 alpha_mix =  0.700 |ddv_scf|^2 =  1.452E-10

      iter #   7 total cpu time :  6404.7 secs   av.it.:  15.9
      thresh= 1.205E-06 alpha_mix =  0.700 |ddv_scf|^2 =  1.380E-09

      iter #   8 total cpu time :  6420.7 secs   av.it.:  13.5
      thresh= 3.715E-06 alpha_mix =  0.700 |ddv_scf|^2 =  1.217E-10

      iter #   9 total cpu time :  6438.2 secs   av.it.:  14.4
      thresh= 1.103E-06 alpha_mix =  0.700 |ddv_scf|^2 =  1.231E-11

      iter #  10 total cpu time :  6455.7 secs   av.it.:  14.8
      thresh= 3.508E-07 alpha_mix =  0.700 |ddv_scf|^2 =  9.078E-13

      iter #  11 total cpu time :  6473.9 secs   av.it.:  15.3
      thresh= 9.528E-08 alpha_mix =  0.700 |ddv_scf|^2 =  1.765E-14

      iter #  12 total cpu time :  6494.5 secs   av.it.:  17.0
      thresh= 1.328E-08 alpha_mix =  0.700 |ddv_scf|^2 =  8.575E-14

      iter #  13 total cpu time :  6512.1 secs   av.it.:  14.6
      thresh= 2.928E-08 alpha_mix =  0.700 |ddv_scf|^2 =  1.127E-14

      iter #  14 total cpu time :  6529.6 secs   av.it.:  14.4
      thresh= 1.062E-08 alpha_mix =  0.700 |ddv_scf|^2 =  4.476E-15

      iter #  15 total cpu time :  6546.4 secs   av.it.:  14.3
      thresh= 6.691E-09 alpha_mix =  0.700 |ddv_scf|^2 =  4.639E-15

      iter #  16 total cpu time :  6563.4 secs   av.it.:  13.4
      thresh= 6.811E-09 alpha_mix =  0.700 |ddv_scf|^2 =  1.396E-16

      iter #  17 total cpu time :  6582.2 secs   av.it.:  15.4
      thresh= 1.181E-09 alpha_mix =  0.700 |ddv_scf|^2 =  1.053E-16

      iter #  18 total cpu time :  6598.7 secs   av.it.:  14.4
      thresh= 1.026E-09 alpha_mix =  0.700 |ddv_scf|^2 =  4.039E-17

      iter #  19 total cpu time :  6616.0 secs   av.it.:  14.9
      thresh= 6.356E-10 alpha_mix =  0.700 |ddv_scf|^2 =  3.521E-18

      iter #  20 total cpu time :  6635.1 secs   av.it.:  15.3
      thresh= 1.876E-10 alpha_mix =  0.700 |ddv_scf|^2 =  2.564E-19

      iter #  21 total cpu time :  6654.2 secs   av.it.:  16.2
      thresh= 5.063E-11 alpha_mix =  0.700 |ddv_scf|^2 =  1.606E-18

      iter #  22 total cpu time :  6670.6 secs   av.it.:  13.5
      thresh= 1.267E-10 alpha_mix =  0.700 |ddv_scf|^2 =  4.301E-20

      iter #  23 total cpu time :  6686.0 secs   av.it.:  14.0
      thresh= 2.074E-11 alpha_mix =  0.700 |ddv_scf|^2 =  1.509E-20

      iter #  24 total cpu time :  6703.9 secs   av.it.:  14.7
      thresh= 1.228E-11 alpha_mix =  0.700 |ddv_scf|^2 =  1.656E-21

      iter #  25 total cpu time :  6720.3 secs   av.it.:  15.0
      thresh= 4.070E-12 alpha_mix =  0.700 |ddv_scf|^2 =  2.184E-22

     End of self-consistent calculation

     Convergence has been achieved 


     Representation #   6 mode #   6

     Self-consistent Calculation

      iter #   1 total cpu time :  6732.2 secs   av.it.:   8.3
      thresh= 1.000E-02 alpha_mix =  0.700 |ddv_scf|^2 =  8.418E-07

      iter #   2 total cpu time :  6750.1 secs   av.it.:  16.2
      thresh= 9.175E-05 alpha_mix =  0.700 |ddv_scf|^2 =  2.652E-06

      iter #   3 total cpu time :  6775.2 secs   av.it.:  14.7
      thresh= 1.628E-04 alpha_mix =  0.700 |ddv_scf|^2 =  1.953E-08

      iter #   4 total cpu time :  6794.3 secs   av.it.:  15.7
      thresh= 1.397E-05 alpha_mix =  0.700 |ddv_scf|^2 =  3.537E-10

      iter #   5 total cpu time :  6812.7 secs   av.it.:  15.8
      thresh= 1.881E-06 alpha_mix =  0.700 |ddv_scf|^2 =  2.641E-11

      iter #   6 total cpu time :  6831.8 secs   av.it.:  16.0
      thresh= 5.139E-07 alpha_mix =  0.700 |ddv_scf|^2 =  9.700E-14

      iter #   7 total cpu time :  6847.9 secs   av.it.:  15.6
      thresh= 3.115E-08 alpha_mix =  0.700 |ddv_scf|^2 =  3.533E-15

      iter #   8 total cpu time :  6867.0 secs   av.it.:  16.0
      thresh= 5.944E-09 alpha_mix =  0.700 |ddv_scf|^2 =  2.849E-15

      iter #   9 total cpu time :  6884.9 secs   av.it.:  15.5
      thresh= 5.338E-09 alpha_mix =  0.700 |ddv_scf|^2 =  1.266E-15

      iter #  10 total cpu time :  6901.7 secs   av.it.:  15.1
      thresh= 3.559E-09 alpha_mix =  0.700 |ddv_scf|^2 =  1.134E-17

      iter #  11 total cpu time :  6920.3 secs   av.it.:  16.1
      thresh= 3.368E-10 alpha_mix =  0.700 |ddv_scf|^2 =  2.389E-18

      iter #  12 total cpu time :  6938.4 secs   av.it.:  15.9
      thresh= 1.546E-10 alpha_mix =  0.700 |ddv_scf|^2 =  5.988E-19

      iter #  13 total cpu time :  6957.1 secs   av.it.:  15.6
      thresh= 7.738E-11 alpha_mix =  0.700 |ddv_scf|^2 =  6.562E-20

      iter #  14 total cpu time :  6975.6 secs   av.it.:  15.6
      thresh= 2.562E-11 alpha_mix =  0.700 |ddv_scf|^2 =  4.195E-21

      iter #  15 total cpu time :  6993.5 secs   av.it.:  15.9
      thresh= 6.477E-12 alpha_mix =  0.700 |ddv_scf|^2 =  1.259E-21

      iter #  16 total cpu time :  7012.2 secs   av.it.:  15.1
      thresh= 3.548E-12 alpha_mix =  0.700 |ddv_scf|^2 =  1.239E-22

     End of self-consistent calculation

     Convergence has been achieved 


     Representation #   7 mode #   7

     Self-consistent Calculation

      iter #   1 total cpu time :  7024.0 secs   av.it.:   7.9
      thresh= 1.000E-02 alpha_mix =  0.700 |ddv_scf|^2 =  6.713E-07

      iter #   2 total cpu time :  7043.0 secs   av.it.:  16.3
      thresh= 8.193E-05 alpha_mix =  0.700 |ddv_scf|^2 =  2.566E-06

      iter #   3 total cpu time :  7064.0 secs   av.it.:  14.6
      thresh= 1.602E-04 alpha_mix =  0.700 |ddv_scf|^2 =  2.551E-09

      iter #   4 total cpu time :  7081.9 secs   av.it.:  16.0
      thresh= 5.051E-06 alpha_mix =  0.700 |ddv_scf|^2 =  9.258E-11

      iter #   5 total cpu time :  7101.8 secs   av.it.:  16.0
      thresh= 9.622E-07 alpha_mix =  0.700 |ddv_scf|^2 =  4.068E-12

      iter #   6 total cpu time :  7121.4 secs   av.it.:  16.3
      thresh= 2.017E-07 alpha_mix =  0.700 |ddv_scf|^2 =  6.266E-13

      iter #   7 total cpu time :  7139.5 secs   av.it.:  15.4
      thresh= 7.916E-08 alpha_mix =  0.700 |ddv_scf|^2 =  1.437E-15

      iter #   8 total cpu time :  7157.6 secs   av.it.:  15.9
      thresh= 3.791E-09 alpha_mix =  0.700 |ddv_scf|^2 =  5.053E-16

      iter #   9 total cpu time :  7177.1 secs   av.it.:  15.9
      thresh= 2.248E-09 alpha_mix =  0.700 |ddv_scf|^2 =  1.518E-17

      iter #  10 total cpu time :  7196.6 secs   av.it.:  16.5
      thresh= 3.896E-10 alpha_mix =  0.700 |ddv_scf|^2 =  2.809E-18

      iter #  11 total cpu time :  7214.8 secs   av.it.:  16.2
      thresh= 1.676E-10 alpha_mix =  0.700 |ddv_scf|^2 =  5.931E-19

      iter #  12 total cpu time :  7233.3 secs   av.it.:  15.6
      thresh= 7.701E-11 alpha_mix =  0.700 |ddv_scf|^2 =  3.177E-19

      iter #  13 total cpu time :  7252.3 secs   av.it.:  15.3
      thresh= 5.637E-11 alpha_mix =  0.700 |ddv_scf|^2 =  1.972E-20

      iter #  14 total cpu time :  7270.5 secs   av.it.:  16.0
      thresh= 1.404E-11 alpha_mix =  0.700 |ddv_scf|^2 =  1.107E-20

      iter #  15 total cpu time :  7288.7 secs   av.it.:  14.9
      thresh= 1.052E-11 alpha_mix =  0.700 |ddv_scf|^2 =  2.762E-22

     End of self-consistent calculation

     Convergence has been achieved 


     Representation #   8 mode #   8

     Self-consistent Calculation

      iter #   1 total cpu time :  7299.8 secs   av.it.:   8.1
      thresh= 1.000E-02 alpha_mix =  0.700 |ddv_scf|^2 =  7.666E-07

      iter #   2 total cpu time :  7319.0 secs   av.it.:  16.1
      thresh= 8.755E-05 alpha_mix =  0.700 |ddv_scf|^2 =  2.096E-06

      iter #   3 total cpu time :  7341.1 secs   av.it.:  14.7
      thresh= 1.448E-04 alpha_mix =  0.700 |ddv_scf|^2 =  3.494E-08

      iter #   4 total cpu time :  7357.7 secs   av.it.:  15.2
      thresh= 1.869E-05 alpha_mix =  0.700 |ddv_scf|^2 =  3.914E-10

      iter #   5 total cpu time :  7377.3 secs   av.it.:  14.8
      thresh= 1.979E-06 alpha_mix =  0.700 |ddv_scf|^2 =  3.418E-12

      iter #   6 total cpu time :  7395.5 secs   av.it.:  15.9
      thresh= 1.849E-07 alpha_mix =  0.700 |ddv_scf|^2 =  1.501E-13

      iter #   7 total cpu time :  7413.9 secs   av.it.:  16.2
      thresh= 3.874E-08 alpha_mix =  0.700 |ddv_scf|^2 =  2.056E-14

      iter #   8 total cpu time :  7433.9 secs   av.it.:  15.5
      thresh= 1.434E-08 alpha_mix =  0.700 |ddv_scf|^2 =  3.982E-16

      iter #   9 total cpu time :  7453.0 secs   av.it.:  16.3
      thresh= 1.996E-09 alpha_mix =  0.700 |ddv_scf|^2 =  1.735E-16

      iter #  10 total cpu time :  7470.4 secs   av.it.:  15.6
      thresh= 1.317E-09 alpha_mix =  0.700 |ddv_scf|^2 =  7.445E-17

      iter #  11 total cpu time :  7504.1 secs   av.it.:  15.0
      thresh= 8.628E-10 alpha_mix =  0.700 |ddv_scf|^2 =  4.600E-18

      iter #  12 total cpu time :  7520.2 secs   av.it.:  15.1
      thresh= 2.145E-10 alpha_mix =  0.700 |ddv_scf|^2 =  3.343E-19

      iter #  13 total cpu time :  7542.1 secs   av.it.:  16.0
      thresh= 5.782E-11 alpha_mix =  0.700 |ddv_scf|^2 =  4.389E-20

      iter #  14 total cpu time :  7560.1 secs   av.it.:  16.1
      thresh= 2.095E-11 alpha_mix =  0.700 |ddv_scf|^2 =  8.069E-21

      iter #  15 total cpu time :  7578.5 secs   av.it.:  16.0
      thresh= 8.983E-12 alpha_mix =  0.700 |ddv_scf|^2 =  3.753E-22

     End of self-consistent calculation

     Convergence has been achieved 


     Representation #   9 mode #   9

     Self-consistent Calculation

      iter #   1 total cpu time :  7590.0 secs   av.it.:   8.3
      thresh= 1.000E-02 alpha_mix =  0.700 |ddv_scf|^2 =  9.174E-07

      iter #   2 total cpu time :  7615.0 secs   av.it.:  16.2
      thresh= 9.578E-05 alpha_mix =  0.700 |ddv_scf|^2 =  2.898E-06

      iter #   3 total cpu time :  7633.5 secs   av.it.:  14.7
      thresh= 1.702E-04 alpha_mix =  0.700 |ddv_scf|^2 =  2.108E-08

      iter #   4 total cpu time :  7651.2 secs   av.it.:  15.8
      thresh= 1.452E-05 alpha_mix =  0.700 |ddv_scf|^2 =  3.742E-10

      iter #   5 total cpu time :  7673.7 secs   av.it.:  15.8
      thresh= 1.935E-06 alpha_mix =  0.700 |ddv_scf|^2 =  2.441E-11

      iter #   6 total cpu time :  7691.8 secs   av.it.:  16.0
      thresh= 4.941E-07 alpha_mix =  0.700 |ddv_scf|^2 =  1.332E-13

      iter #   7 total cpu time :  7708.8 secs   av.it.:  15.4
      thresh= 3.650E-08 alpha_mix =  0.700 |ddv_scf|^2 =  2.925E-15

      iter #   8 total cpu time :  7727.1 secs   av.it.:  15.9
      thresh= 5.408E-09 alpha_mix =  0.700 |ddv_scf|^2 =  2.104E-15

      iter #   9 total cpu time :  7746.9 secs   av.it.:  15.6
      thresh= 4.587E-09 alpha_mix =  0.700 |ddv_scf|^2 =  1.219E-15

      iter #  10 total cpu time :  7764.7 secs   av.it.:  15.1
      thresh= 3.491E-09 alpha_mix =  0.700 |ddv_scf|^2 =  1.288E-17

      iter #  11 total cpu time :  7782.3 secs   av.it.:  16.0
      thresh= 3.589E-10 alpha_mix =  0.700 |ddv_scf|^2 =  2.017E-18

      iter #  12 total cpu time :  7800.5 secs   av.it.:  15.9
      thresh= 1.420E-10 alpha_mix =  0.700 |ddv_scf|^2 =  4.672E-19

      iter #  13 total cpu time :  7818.4 secs   av.it.:  15.7
      thresh= 6.835E-11 alpha_mix =  0.700 |ddv_scf|^2 =  5.972E-20

      iter #  14 total cpu time :  7836.5 secs   av.it.:  15.4
      thresh= 2.444E-11 alpha_mix =  0.700 |ddv_scf|^2 =  2.767E-21

      iter #  15 total cpu time :  7855.3 secs   av.it.:  16.0
      thresh= 5.260E-12 alpha_mix =  0.700 |ddv_scf|^2 =  6.982E-22

     End of self-consistent calculation

     Convergence has been achieved 
 
     Number of q in the star =    6
     List of q in the star:
          1   0.166666667   0.288675135   0.000000000
          2  -0.333333333   0.000000000   0.000000000
          3   0.166666667  -0.288675135   0.000000000
          4  -0.166666667   0.288675135   0.000000000
          5  -0.166666667  -0.288675135   0.000000000
          6   0.333333333   0.000000000   0.000000000

     Diagonalizing the dynamical matrix

     q = (    0.166666667   0.288675135   0.000000000 ) 

 **************************************************************************
     freq (    1) =       0.988909 [THz] =      32.986439 [cm-1]
     freq (    2) =       1.650209 [THz] =      55.045055 [cm-1]
     freq (    3) =       2.650229 [THz] =      88.402130 [cm-1]
     freq (    4) =       7.453399 [THz] =     248.618627 [cm-1]
     freq (    5) =       8.043363 [THz] =     268.297708 [cm-1]
     freq (    6) =       8.641369 [THz] =     288.245027 [cm-1]
     freq (    7) =       8.649893 [THz] =     288.529384 [cm-1]
     freq (    8) =      10.038437 [THz] =     334.846225 [cm-1]
     freq (    9) =      11.491141 [THz] =     383.303219 [cm-1]
 **************************************************************************

     Mode symmetry, C_s (m)     point group:

     freq (   1-   1) =         33.0  [cm-1]   --> A'                 
     freq (   2-   2) =         55.0  [cm-1]   --> A''                
     freq (   3-   3) =         88.4  [cm-1]   --> A'                 
     freq (   4-   4) =        248.6  [cm-1]   --> A'                 
     freq (   5-   5) =        268.3  [cm-1]   --> A''                
     freq (   6-   6) =        288.2  [cm-1]   --> A''                
     freq (   7-   7) =        288.5  [cm-1]   --> A'                 
     freq (   8-   8) =        334.8  [cm-1]   --> A''                
     freq (   9-   9) =        383.3  [cm-1]   --> A'                 

     Calculation of q =    0.1666667   0.3849002   0.0000000
 
     Parallelization info
     --------------------
     sticks:   dense  smooth     PW     G-vecs:    dense   smooth      PW
     Min          60      31     10                 7329     2593     492
     Max          62      32     11                 7342     2605     504
     Sum        1099     559    187               132031    46753    8959
 
     Using Slab Decomposition
 

     Title: 
     TaS2                                                                       


     bravais-lattice index     =            4
     lattice parameter (alat)  =       6.3117  a.u.
     unit-cell volume          =     977.9382 (a.u.)^3
     number of atoms/cell      =            3
     number of atomic types    =            2
     number of electrons       =        17.00
     number of Kohn-Sham states=           13
     kinetic-energy cutoff     =      50.0000  Ry
     charge density cutoff     =     400.0000  Ry
     Exchange-correlation= PBE
                           (   1   4   3   4   0   0   0)

     celldm(1)=   6.311685  celldm(2)=   0.000000  celldm(3)=   4.491018
     celldm(4)=   0.000000  celldm(5)=   0.000000  celldm(6)=   0.000000

     crystal axes: (cart. coord. in units of alat)
               a(1) = (   1.000000   0.000000   0.000000 )  
               a(2) = (  -0.500000   0.866025   0.000000 )  
               a(3) = (   0.000000   0.000000   4.491018 )  

     reciprocal axes: (cart. coord. in units 2 pi/alat)
               b(1) = (  1.000000  0.577350  0.000000 )  
               b(2) = (  0.000000  1.154701  0.000000 )  
               b(3) = (  0.000000  0.000000  0.222667 )  


     PseudoPot. # 1 for Ta read from file:
     /fastscratch/tsievers/TaS2_24_ph_benchmark_images//pseudos/Ta.pbe-hgh.UPF
     MD5 check sum: 129c51a9a4223465c43ca8d238d17e53
     Pseudo is Norm-conserving, Zval =  5.0
     Generated in analytical, separable form
     Using radial grid of 1273 points,  6 beta functions with: 
                l(1) =   0
                l(2) =   0
                l(3) =   1
                l(4) =   1
                l(5) =   2
                l(6) =   2

     PseudoPot. # 2 for S  read from file:
     /fastscratch/tsievers/TaS2_24_ph_benchmark_images//pseudos/S.pbe-hgh.UPF
     MD5 check sum: 3a21e384b95a7cc84d045d3bcc0c4ba8
     Pseudo is Norm-conserving, Zval =  6.0
     Generated in analytical, separable form
[...]

      iter #   1 total cpu time : 26127.4 secs   av.it.:   8.4
      thresh= 1.000E-02 alpha_mix =  0.700 |ddv_scf|^2 =  8.044E-07

      iter #   2 total cpu time : 26133.2 secs   av.it.:  16.6
      thresh= 8.969E-05 alpha_mix =  0.700 |ddv_scf|^2 =  1.116E-06

      iter #   3 total cpu time : 26140.0 secs   av.it.:  15.5
      thresh= 1.057E-04 alpha_mix =  0.700 |ddv_scf|^2 =  1.791E-09

      iter #   4 total cpu time : 26146.4 secs   av.it.:  16.0
      thresh= 4.232E-06 alpha_mix =  0.700 |ddv_scf|^2 =  1.089E-10

      iter #   5 total cpu time : 26152.0 secs   av.it.:  15.4
      thresh= 1.044E-06 alpha_mix =  0.700 |ddv_scf|^2 =  1.145E-13

      iter #   6 total cpu time : 26157.7 secs   av.it.:  15.9
      thresh= 3.383E-08 alpha_mix =  0.700 |ddv_scf|^2 =  1.312E-14

      iter #   7 total cpu time : 26163.5 secs   av.it.:  16.5
      thresh= 1.145E-08 alpha_mix =  0.700 |ddv_scf|^2 =  3.519E-16

      iter #   8 total cpu time : 26170.8 secs   av.it.:  16.7
      thresh= 1.876E-09 alpha_mix =  0.700 |ddv_scf|^2 =  7.424E-18

      iter #   9 total cpu time : 26177.9 secs   av.it.:  16.5
      thresh= 2.725E-10 alpha_mix =  0.700 |ddv_scf|^2 =  1.396E-18

      iter #  10 total cpu time : 26183.7 secs   av.it.:  16.3
      thresh= 1.182E-10 alpha_mix =  0.700 |ddv_scf|^2 =  5.011E-19

      iter #  11 total cpu time : 26189.4 secs   av.it.:  15.8
      thresh= 7.079E-11 alpha_mix =  0.700 |ddv_scf|^2 =  4.892E-20

      iter #  12 total cpu time : 26194.7 secs   av.it.:  15.6
      thresh= 2.212E-11 alpha_mix =  0.700 |ddv_scf|^2 =  4.467E-22

     End of self-consistent calculation

     Convergence has been achieved 


     Representation #   3 mode #   3

     Self-consistent Calculation

      iter #   1 total cpu time : 26199.0 secs   av.it.:   7.7
      thresh= 1.000E-02 alpha_mix =  0.700 |ddv_scf|^2 =  3.594E-07

      iter #   2 total cpu time : 26206.0 secs   av.it.:  16.6
      thresh= 5.995E-05 alpha_mix =  0.700 |ddv_scf|^2 =  5.447E-07

      iter #   3 total cpu time : 26211.5 secs   av.it.:  15.4
      thresh= 7.380E-05 alpha_mix =  0.700 |ddv_scf|^2 =  2.207E-10

      iter #   4 total cpu time : 26217.2 secs   av.it.:  15.9
      thresh= 1.485E-06 alpha_mix =  0.700 |ddv_scf|^2 =  2.557E-11

      iter #   5 total cpu time : 26222.9 secs   av.it.:  16.2
      thresh= 5.057E-07 alpha_mix =  0.700 |ddv_scf|^2 =  4.492E-13

      iter #   6 total cpu time : 26230.6 secs   av.it.:  16.4
      thresh= 6.702E-08 alpha_mix =  0.700 |ddv_scf|^2 =  4.287E-14

      iter #   7 total cpu time : 26237.3 secs   av.it.:  16.6
      thresh= 2.071E-08 alpha_mix =  0.700 |ddv_scf|^2 =  1.787E-16

      iter #   8 total cpu time : 26243.7 secs   av.it.:  16.4
      thresh= 1.337E-09 alpha_mix =  0.700 |ddv_scf|^2 =  1.543E-17

      iter #   9 total cpu time : 26250.0 secs   av.it.:  16.0
      thresh= 3.928E-10 alpha_mix =  0.700 |ddv_scf|^2 =  1.056E-18

      iter #  10 total cpu time : 26255.9 secs   av.it.:  16.7
      thresh= 1.028E-10 alpha_mix =  0.700 |ddv_scf|^2 =  1.849E-19

      iter #  11 total cpu time : 26261.7 secs   av.it.:  15.9
      thresh= 4.300E-11 alpha_mix =  0.700 |ddv_scf|^2 =  2.041E-20

      iter #  12 total cpu time : 26269.8 secs   av.it.:  16.0
      thresh= 1.429E-11 alpha_mix =  0.700 |ddv_scf|^2 =  6.156E-21

      iter #  13 total cpu time : 26275.3 secs   av.it.:  16.1
      thresh= 7.846E-12 alpha_mix =  0.700 |ddv_scf|^2 =  9.865E-23

     End of self-consistent calculation

     Convergence has been achieved 


     Representation #   4 mode #   4

     Self-consistent Calculation

      iter #   1 total cpu time : 26279.0 secs   av.it.:   8.2
      thresh= 1.000E-02 alpha_mix =  0.700 |ddv_scf|^2 =  3.240E-07

      iter #   2 total cpu time : 26284.8 secs   av.it.:  16.4
      thresh= 5.692E-05 alpha_mix =  0.700 |ddv_scf|^2 =  1.692E-07

      iter #   3 total cpu time : 26290.4 secs   av.it.:  15.8
      thresh= 4.113E-05 alpha_mix =  0.700 |ddv_scf|^2 =  4.662E-09

      iter #   4 total cpu time : 26296.8 secs   av.it.:  16.3
      thresh= 6.828E-06 alpha_mix =  0.700 |ddv_scf|^2 =  1.703E-09

      iter #   5 total cpu time : 26303.0 secs   av.it.:  15.7
      thresh= 4.127E-06 alpha_mix =  0.700 |ddv_scf|^2 =  2.615E-12

      iter #   6 total cpu time : 26309.0 secs   av.it.:  15.9
      thresh= 1.617E-07 alpha_mix =  0.700 |ddv_scf|^2 =  6.830E-14

      iter #   7 total cpu time : 26315.0 secs   av.it.:  16.1
      thresh= 2.613E-08 alpha_mix =  0.700 |ddv_scf|^2 =  7.280E-16

      iter #   8 total cpu time : 26321.1 secs   av.it.:  15.4
      thresh= 2.698E-09 alpha_mix =  0.700 |ddv_scf|^2 =  1.702E-16

      iter #   9 total cpu time : 26328.3 secs   av.it.:  16.4
      thresh= 1.305E-09 alpha_mix =  0.700 |ddv_scf|^2 =  2.443E-18

      iter #  10 total cpu time : 26334.7 secs   av.it.:  16.1
      thresh= 1.563E-10 alpha_mix =  0.700 |ddv_scf|^2 =  1.353E-19

      iter #  11 total cpu time : 26340.4 secs   av.it.:  16.1
      thresh= 3.678E-11 alpha_mix =  0.700 |ddv_scf|^2 =  1.126E-20

      iter #  12 total cpu time : 26346.8 secs   av.it.:  16.3
      thresh= 1.061E-11 alpha_mix =  0.700 |ddv_scf|^2 =  1.097E-21

      iter #  13 total cpu time : 26352.3 secs   av.it.:  16.0
      thresh= 3.311E-12 alpha_mix =  0.700 |ddv_scf|^2 =  1.526E-22

     End of self-consistent calculation

     Convergence has been achieved 


     Representation #   5 mode #   5

     Self-consistent Calculation

      iter #   1 total cpu time : 26356.1 secs   av.it.:   7.7
      thresh= 1.000E-02 alpha_mix =  0.700 |ddv_scf|^2 =  2.223E-07

      iter #   2 total cpu time : 26363.1 secs   av.it.:  16.7
      thresh= 4.714E-05 alpha_mix =  0.700 |ddv_scf|^2 =  2.563E-07

      iter #   3 total cpu time : 26368.7 secs   av.it.:  15.7
      thresh= 5.063E-05 alpha_mix =  0.700 |ddv_scf|^2 =  2.470E-09

      iter #   4 total cpu time : 26374.4 secs   av.it.:  16.0
      thresh= 4.970E-06 alpha_mix =  0.700 |ddv_scf|^2 =  8.309E-11

      iter #   5 total cpu time : 26379.9 secs   av.it.:  15.5
      thresh= 9.115E-07 alpha_mix =  0.700 |ddv_scf|^2 =  3.412E-12

      iter #   6 total cpu time : 26387.0 secs   av.it.:  15.8
      thresh= 1.847E-07 alpha_mix =  0.700 |ddv_scf|^2 =  2.169E-14

      iter #   7 total cpu time : 26394.7 secs   av.it.:  16.2
      thresh= 1.473E-08 alpha_mix =  0.700 |ddv_scf|^2 =  3.602E-16

      iter #   8 total cpu time : 26401.1 secs   av.it.:  16.2
      thresh= 1.898E-09 alpha_mix =  0.700 |ddv_scf|^2 =  1.525E-17

      iter #   9 total cpu time : 26407.4 secs   av.it.:  16.1
      thresh= 3.905E-10 alpha_mix =  0.700 |ddv_scf|^2 =  1.096E-18

      iter #  10 total cpu time : 26413.4 secs   av.it.:  16.9
      thresh= 1.047E-10 alpha_mix =  0.700 |ddv_scf|^2 =  4.167E-19

      iter #  11 total cpu time : 26419.2 secs   av.it.:  16.3
      thresh= 6.455E-11 alpha_mix =  0.700 |ddv_scf|^2 =  2.921E-20

      iter #  12 total cpu time : 26427.5 secs   av.it.:  16.4
      thresh= 1.709E-11 alpha_mix =  0.700 |ddv_scf|^2 =  9.166E-21

      iter #  13 total cpu time : 26433.0 secs   av.it.:  16.3
      thresh= 9.574E-12 alpha_mix =  0.700 |ddv_scf|^2 =  9.972E-22

     End of self-consistent calculation

     Convergence has been achieved 


     Representation #   6 mode #   6

     Self-consistent Calculation

      iter #   1 total cpu time : 26436.7 secs   av.it.:   8.1
      thresh= 1.000E-02 alpha_mix =  0.700 |ddv_scf|^2 =  3.618E-07

      iter #   2 total cpu time : 26442.5 secs   av.it.:  16.3
      thresh= 6.015E-05 alpha_mix =  0.700 |ddv_scf|^2 =  1.675E-07

      iter #   3 total cpu time : 26447.9 secs   av.it.:  15.6
      thresh= 4.092E-05 alpha_mix =  0.700 |ddv_scf|^2 =  3.975E-10

      iter #   4 total cpu time : 26453.7 secs   av.it.:  14.3
      thresh= 1.994E-06 alpha_mix =  0.700 |ddv_scf|^2 =  2.188E-13

      iter #   5 total cpu time : 26460.5 secs   av.it.:  15.6
      thresh= 4.678E-08 alpha_mix =  0.700 |ddv_scf|^2 =  1.394E-14

      iter #   6 total cpu time : 26466.0 secs   av.it.:  15.7
      thresh= 1.180E-08 alpha_mix =  0.700 |ddv_scf|^2 =  1.393E-16

      iter #   7 total cpu time : 26471.7 secs   av.it.:  15.9
      thresh= 1.180E-09 alpha_mix =  0.700 |ddv_scf|^2 =  6.538E-18

      iter #   8 total cpu time : 26478.0 secs   av.it.:  16.3
      thresh= 2.557E-10 alpha_mix =  0.700 |ddv_scf|^2 =  1.218E-19

      iter #   9 total cpu time : 26485.1 secs   av.it.:  16.6
      thresh= 3.491E-11 alpha_mix =  0.700 |ddv_scf|^2 =  7.760E-21

      iter #  10 total cpu time : 26491.0 secs   av.it.:  16.0
      thresh= 8.809E-12 alpha_mix =  0.700 |ddv_scf|^2 =  1.088E-22

     End of self-consistent calculation

     Convergence has been achieved 


     Representation #   7 mode #   7

     Self-consistent Calculation

      iter #   1 total cpu time : 26494.4 secs   av.it.:   7.2
      thresh= 1.000E-02 alpha_mix =  0.700 |ddv_scf|^2 =  6.043E-08

      iter #   2 total cpu time : 26500.3 secs   av.it.:  16.4
      thresh= 2.458E-05 alpha_mix =  0.700 |ddv_scf|^2 =  2.617E-08

      iter #   3 total cpu time : 26505.8 secs   av.it.:  15.6
      thresh= 1.618E-05 alpha_mix =  0.700 |ddv_scf|^2 =  1.430E-10

      iter #   4 total cpu time : 26511.0 secs   av.it.:  14.8
      thresh= 1.196E-06 alpha_mix =  0.700 |ddv_scf|^2 =  1.637E-12

      iter #   5 total cpu time : 26517.4 secs   av.it.:  15.3
      thresh= 1.279E-07 alpha_mix =  0.700 |ddv_scf|^2 =  1.015E-14

      iter #   6 total cpu time : 26523.6 secs   av.it.:  16.2
      thresh= 1.007E-08 alpha_mix =  0.700 |ddv_scf|^2 =  4.396E-17

      iter #   7 total cpu time : 26529.3 secs   av.it.:  16.3
      thresh= 6.630E-10 alpha_mix =  0.700 |ddv_scf|^2 =  2.207E-18

      iter #   8 total cpu time : 26535.5 secs   av.it.:  16.0
      thresh= 1.486E-10 alpha_mix =  0.700 |ddv_scf|^2 =  1.086E-20

      iter #   9 total cpu time : 26541.8 secs   av.it.:  16.1
      thresh= 1.042E-11 alpha_mix =  0.700 |ddv_scf|^2 =  1.130E-21

      iter #  10 total cpu time : 26547.8 secs   av.it.:  16.5
      thresh= 3.362E-12 alpha_mix =  0.700 |ddv_scf|^2 =  2.924E-22

     End of self-consistent calculation

     Convergence has been achieved 


     Representation #   8 mode #   8

     Self-consistent Calculation

      iter #   1 total cpu time : 26551.8 secs   av.it.:   8.2
      thresh= 1.000E-02 alpha_mix =  0.700 |ddv_scf|^2 =  3.153E-07

      iter #   2 total cpu time : 26557.4 secs   av.it.:  16.3
      thresh= 5.615E-05 alpha_mix =  0.700 |ddv_scf|^2 =  1.176E-07

      iter #   3 total cpu time : 26562.9 secs   av.it.:  15.6
      thresh= 3.430E-05 alpha_mix =  0.700 |ddv_scf|^2 =  3.858E-10

      iter #   4 total cpu time : 26568.1 secs   av.it.:  14.3
      thresh= 1.964E-06 alpha_mix =  0.700 |ddv_scf|^2 =  1.879E-13

      iter #   5 total cpu time : 26573.6 secs   av.it.:  15.8
      thresh= 4.335E-08 alpha_mix =  0.700 |ddv_scf|^2 =  1.020E-14

      iter #   6 total cpu time : 26581.7 secs   av.it.:  15.5
      thresh= 1.010E-08 alpha_mix =  0.700 |ddv_scf|^2 =  1.374E-16

      iter #   7 total cpu time : 26588.2 secs   av.it.:  15.8
      thresh= 1.172E-09 alpha_mix =  0.700 |ddv_scf|^2 =  2.369E-18

      iter #   8 total cpu time : 26594.5 secs   av.it.:  16.1
      thresh= 1.539E-10 alpha_mix =  0.700 |ddv_scf|^2 =  1.134E-19

      iter #   9 total cpu time : 26600.8 secs   av.it.:  16.3
      thresh= 3.368E-11 alpha_mix =  0.700 |ddv_scf|^2 =  1.765E-20

      iter #  10 total cpu time : 26607.0 secs   av.it.:  15.9
      thresh= 1.329E-11 alpha_mix =  0.700 |ddv_scf|^2 =  2.107E-22

     End of self-consistent calculation

     Convergence has been achieved 


     Representation #   9 mode #   9

     Self-consistent Calculation

      iter #   1 total cpu time : 26610.7 secs   av.it.:   8.0
      thresh= 1.000E-02 alpha_mix =  0.700 |ddv_scf|^2 =  1.257E-07

      iter #   2 total cpu time : 26617.7 secs   av.it.:  16.2
      thresh= 3.545E-05 alpha_mix =  0.700 |ddv_scf|^2 =  5.112E-08

      iter #   3 total cpu time : 26623.4 secs   av.it.:  16.0
      thresh= 2.261E-05 alpha_mix =  0.700 |ddv_scf|^2 =  9.543E-09

      iter #   4 total cpu time : 26628.9 secs   av.it.:  15.7
      thresh= 9.769E-06 alpha_mix =  0.700 |ddv_scf|^2 =  2.994E-10

      iter #   5 total cpu time : 26634.4 secs   av.it.:  15.4
      thresh= 1.730E-06 alpha_mix =  0.700 |ddv_scf|^2 =  1.332E-13

      iter #   6 total cpu time : 26640.2 secs   av.it.:  14.8
      thresh= 3.650E-08 alpha_mix =  0.700 |ddv_scf|^2 =  2.190E-15

      iter #   7 total cpu time : 26646.1 secs   av.it.:  15.4
      thresh= 4.680E-09 alpha_mix =  0.700 |ddv_scf|^2 =  1.896E-17

      iter #   8 total cpu time : 26652.7 secs   av.it.:  16.0
      thresh= 4.354E-10 alpha_mix =  0.700 |ddv_scf|^2 =  9.353E-19

      iter #   9 total cpu time : 26658.9 secs   av.it.:  16.1
      thresh= 9.671E-11 alpha_mix =  0.700 |ddv_scf|^2 =  4.845E-20

      iter #  10 total cpu time : 26664.8 secs   av.it.:  16.4
      thresh= 2.201E-11 alpha_mix =  0.700 |ddv_scf|^2 =  6.104E-21

      iter #  11 total cpu time : 26671.3 secs   av.it.:  16.4
      thresh= 7.813E-12 alpha_mix =  0.700 |ddv_scf|^2 =  2.869E-21

      iter #  12 total cpu time : 26677.0 secs   av.it.:  15.9
      thresh= 5.356E-12 alpha_mix =  0.700 |ddv_scf|^2 =  3.083E-23

     End of self-consistent calculation

     Convergence has been achieved 
 
     Number of q in the star =    2
     List of q in the star:
          1   0.333333333   0.577350269   0.000000000
          2  -0.333333333   0.577350269   0.000000000

     Diagonalizing the dynamical matrix

     q = (    0.333333333   0.577350269   0.000000000 ) 

 **************************************************************************
     freq (    1) =      -0.798519 [THz] =     -26.635727 [cm-1]
     freq (    2) =       2.593069 [THz] =      86.495477 [cm-1]
     freq (    3) =       4.339704 [THz] =     144.756936 [cm-1]
     freq (    4) =       8.663122 [THz] =     288.970650 [cm-1]
     freq (    5) =       8.918114 [THz] =     297.476278 [cm-1]
     freq (    6) =       9.085497 [THz] =     303.059543 [cm-1]
     freq (    7) =       9.135379 [THz] =     304.723456 [cm-1]
     freq (    8) =       9.324426 [THz] =     311.029364 [cm-1]
     freq (    9) =      11.399953 [THz] =     380.261510 [cm-1]
 **************************************************************************

     Mode symmetry, C_3h (-6)   point group:

     freq (   1-   1) =        -26.6  [cm-1]   --> E'                 
     freq (   2-   2) =         86.5  [cm-1]   --> A''                
     freq (   3-   3) =        144.8  [cm-1]   --> E'*                
     freq (   4-   4) =        289.0  [cm-1]   --> E'                 
     freq (   5-   5) =        297.5  [cm-1]   --> A''                
     freq (   6-   6) =        303.1  [cm-1]   --> E''*               
     freq (   7-   7) =        304.7  [cm-1]   --> A'                 
     freq (   8-   8) =        311.0  [cm-1]   --> E''                
     freq (   9-   9) =        380.3  [cm-1]   --> E'*                
 
     init_run     :      1.50s CPU      3.53s WALL (       8 calls)
     electrons    :    470.51s CPU    488.21s WALL (       8 calls)

     Called by init_run:
     wfcinit      :      0.00s CPU      0.01s WALL (       8 calls)
     potinit      :      0.11s CPU      2.12s WALL (       8 calls)
     hinit0       :      0.77s CPU      0.78s WALL (       8 calls)

     Called by electrons:
     c_bands      :    470.42s CPU    488.12s WALL (       8 calls)
     v_of_rho     :      0.10s CPU      0.11s WALL (       9 calls)

     Called by c_bands:
     init_us_2    :     55.98s CPU     58.87s WALL (  433569 calls)
     init_us_2:cp :     54.79s CPU     57.79s WALL (  433569 calls)
     cegterg      :    322.15s CPU    329.24s WALL (    6146 calls)

     Called by *egterg:
     cdiaghg      :     40.05s CPU     41.00s WALL (   90435 calls)
     h_psi        :  15294.50s CPU  15724.01s WALL ( 8942655 calls)
     g_psi        :      1.80s CPU      1.84s WALL (   86209 calls)

     Called by h_psi:
     h_psi:calbec :    693.28s CPU    712.48s WALL ( 8942655 calls)
     vloc_psi     :  14092.23s CPU  14488.20s WALL ( 8942655 calls)
     add_vuspsi   :    414.13s CPU    429.17s WALL ( 8942655 calls)

     General routines
     calbec       :   1241.45s CPU   1280.67s WALL (17885927 calls)
     fft          :     15.34s CPU     17.58s WALL (   18533 calls)
     ffts         :      9.33s CPU      9.53s WALL (   22511 calls)
     fftw         :  18436.44s CPU  18892.45s WALL (******** calls)
     interpolate  :      2.85s CPU      2.92s WALL (    2846 calls)
     davcio       :     59.27s CPU    712.40s WALL ( 1998649 calls)
 
     Parallel routines
 
     PHONON       :      6h54m CPU      7h24m WALL

     INITIALIZATION: 
     phq_setup    :      0.26s CPU      1.00s WALL (       8 calls)
     phq_init     :     10.01s CPU     10.34s WALL (       8 calls)
 
     phq_init     :     10.01s CPU     10.34s WALL (       8 calls)
     init_vloc    :      0.52s CPU      0.52s WALL (       9 calls)
     init_us_1    :      0.27s CPU      0.28s WALL (       9 calls)
     init_us_2    :     55.98s CPU     58.87s WALL (  433569 calls)
 
     DYNAMICAL MATRIX:
     dynmat0      :      2.74s CPU      2.98s WALL (       8 calls)
     phqscf       :  24383.03s CPU  26126.13s WALL (       8 calls)
     dynmatrix    :      1.39s CPU      1.42s WALL (       8 calls)
 
     phqscf       :  24383.03s CPU  26126.13s WALL (       8 calls)
     solve_linter :  24370.74s CPU  26101.42s WALL (      72 calls)
     drhodv       :     12.20s CPU     13.15s WALL (      72 calls)
 
     dynmat0      :      2.74s CPU      2.98s WALL (       8 calls)
     dynmat_us    :      2.71s CPU      2.79s WALL (       8 calls)
     d2ionq       :      0.03s CPU      0.03s WALL (       8 calls)
 
     dynmat_us    :      2.71s CPU      2.79s WALL (       8 calls)
 
     phqscf       :  24383.03s CPU  26126.13s WALL (       8 calls)
     solve_linter :  24370.74s CPU  26101.42s WALL (      72 calls)
 
     solve_linter :  24370.74s CPU  26101.42s WALL (      72 calls)
     dvqpsi_us    :     80.73s CPU     83.67s WALL (   19017 calls)
     sth_kernel   :  23214.29s CPU  24410.55s WALL (    1415 calls)
     apply_dpot_b :    868.72s CPU    911.39s WALL (  368066 calls)
     ortho        :     54.76s CPU     57.31s WALL (  387083 calls)
     cgsolve      :  16924.40s CPU  17402.66s WALL (  387083 calls)
     incdrhoscf   :   4385.39s CPU   4428.73s WALL (  387083 calls)
     dv_of_drho   :     16.78s CPU     19.87s WALL (    1415 calls)
     mix_pot      :    301.28s CPU    590.42s WALL (    1415 calls)
     psymdvscf    :     50.42s CPU     55.33s WALL (    1415 calls)
 
     dvqpsi_us    :     80.73s CPU     83.67s WALL (   19017 calls)
     dvqpsi_us_on :      5.68s CPU      5.85s WALL (   19017 calls)
 
     cgsolve      :  16924.40s CPU  17402.66s WALL (  387083 calls)
     ch_psi       :  16406.39s CPU  16864.70s WALL ( 8846074 calls)
 
     ch_psi       :  16406.39s CPU  16864.70s WALL ( 8846074 calls)
     h_psi        :  15294.50s CPU  15724.01s WALL ( 8942655 calls)
     last         :   1241.70s CPU   1277.31s WALL ( 8846074 calls)
 
     h_psi        :  15294.50s CPU  15724.01s WALL ( 8942655 calls)
     add_vuspsi   :    414.13s CPU    429.17s WALL ( 8942655 calls)
 
     incdrhoscf   :   4385.39s CPU   4428.73s WALL (  387083 calls)
 
 
      General routines
     calbec       :   1241.45s CPU   1280.67s WALL (17885927 calls)
     fft          :     15.34s CPU     17.58s WALL (   18533 calls)
     ffts         :      9.33s CPU      9.53s WALL (   22511 calls)
     fftw         :  18436.44s CPU  18892.45s WALL (******** calls)
     davcio       :     59.27s CPU    712.40s WALL ( 1998649 calls)
     write_rec    :      1.37s CPU    226.40s WALL (    1487 calls)
 
     PHONON       :      6h54m CPU      7h24m WALL

