Module for intel-oneAPI 2021.4 loaded.
 
:: initializing oneAPI environment ...
   2731984: BASH_VERSION = 4.4.20(1)-release
:: advisor -- latest
:: ccl -- latest
:: clck -- latest
:: compiler -- latest
:: dal -- latest
:: debugger -- latest
:: dev-utilities -- latest
:: dnnl -- latest
:: dpcpp-ct -- latest
:: dpl -- latest
:: inspector -- latest
:: intelpython -- latest
:: ipp -- latest
:: ippcp -- latest
:: ipp -- latest
:: itac -- latest
:: LPOT -- latest
:: mkl -- latest
:: modelzoo -- latest
:: mpi -- latest
:: pytorch -- latest
:: tbb -- latest
:: tensorflow -- latest
:: vpl -- latest
:: vtune -- latest
:: oneAPI environment initialized ::
 

     Program PWSCF v.7.0 starts on 19May2022 at 13:30:56 

     This program is part of the open-source Quantum ESPRESSO suite
     for quantum simulation of materials; please cite
         "P. Giannozzi et al., J. Phys.:Condens. Matter 21 395502 (2009);
         "P. Giannozzi et al., J. Phys.:Condens. Matter 29 465901 (2017);
         "P. Giannozzi et al., J. Chem. Phys. 152 154105 (2020);
          URL http://www.quantum-espresso.org", 
     in publications or presentations arising from this work. More details at
     http://www.quantum-espresso.org/quote

     Parallel version (MPI), running on    48 processors

     MPI processes distributed on     3 nodes
     K-points division:     npool     =      24
     R & G space division:  proc/nbgrp/npool/nimage =       2
     17679 MiB available memory on the printing compute node when the environment starts
 
     Reading input from in_files/si_ph_bench_poolsize_2_n_procs_48_0.scf

     Current dimensions of program PWSCF are:
     Max number of different atomic species (ntypx) = 10
     Max number of k-points (npk) =  40000
     Max angular momentum in pseudopotentials (lmaxx) =  4

     Subspace diagonalization in iterative solution of the eigenvalue problem:
     a serial algorithm will be used

 
     Parallelization info
     --------------------
     sticks:   dense  smooth     PW     G-vecs:    dense   smooth      PW
     Min         501     501    150                10436    10436    1738
     Max         502     502    151                10439    10439    1741
     Sum        1003    1003    301                20875    20875    3479
 
     Using Slab Decomposition
 


     bravais-lattice index     =            2
     lattice parameter (alat)  =      10.1899  a.u.
     unit-cell volume          =     264.5151 (a.u.)^3
     number of atoms/cell      =            2
     number of atomic types    =            1
     number of electrons       =         8.00
     number of Kohn-Sham states=            4
     kinetic-energy cutoff     =      70.0000  Ry
     charge density cutoff     =     280.0000  Ry
     scf convergence threshold =      1.0E-10
     mixing beta               =       0.7000
     number of iterations used =            8  plain     mixing
     Exchange-correlation= SLA  PW   NOGX NOGC
                           (   1   4   0   0   0   0   0)

     celldm(1)=  10.189905  celldm(2)=   0.000000  celldm(3)=   0.000000
     celldm(4)=   0.000000  celldm(5)=   0.000000  celldm(6)=   0.000000

     crystal axes: (cart. coord. in units of alat)
               a(1) = (  -0.500000   0.000000   0.500000 )  
               a(2) = (   0.000000   0.500000   0.500000 )  
               a(3) = (  -0.500000   0.500000   0.000000 )  

     reciprocal axes: (cart. coord. in units 2 pi/alat)
               b(1) = ( -1.000000 -1.000000  1.000000 )  
               b(2) = (  1.000000  1.000000  1.000000 )  
               b(3) = ( -1.000000  1.000000 -1.000000 )  


     PseudoPot. # 1 for Si read from file:
     ./pseudos/Si.nc.UPF
     MD5 check sum: 9e2d726316af3d4752eea8ab0afbb951
     Pseudo is Norm-conserving + core correction, Zval =  4.0
     Generated using ONCVPSP code by D. R. Hamann
     Using radial grid of 1510 points,  6 beta functions with: 
                l(1) =   0
                l(2) =   0
                l(3) =   1
                l(4) =   1
                l(5) =   2
                l(6) =   2

     atomic species   valence    mass     pseudopotential
        Si             4.00    28.08550     Si( 1.00)

     48 Sym. Ops., with inversion, found (24 have fractional translation)



   Cartesian axes

     site n.     atom                  positions (alat units)
         1           Si  tau(   1) = (   0.0000000   0.0000000   0.0000000  )
         2           Si  tau(   2) = (  -0.2500000   0.2500000   0.2500000  )

     number of k points=    28
                       cart. coord. in units 2pi/alat
        k(    1) = (  -0.0833333   0.0833333   0.0833333), wk =   0.0185185
        k(    2) = (  -0.2500000   0.2500000  -0.0833333), wk =   0.0555556
        k(    3) = (  -0.4166667   0.4166667  -0.2500000), wk =   0.0555556
        k(    4) = (   0.4166667  -0.4166667   0.5833333), wk =   0.0555556
        k(    5) = (   0.2500000  -0.2500000   0.4166667), wk =   0.0555556
        k(    6) = (   0.0833333  -0.0833333   0.2500000), wk =   0.0555556
        k(    7) = (  -0.0833333   0.4166667   0.0833333), wk =   0.0555556
        k(    8) = (  -0.2500000   0.5833333  -0.0833333), wk =   0.1111111
        k(    9) = (   0.5833333  -0.2500000   0.7500000), wk =   0.1111111
        k(   10) = (   0.4166667  -0.0833333   0.5833333), wk =   0.1111111
        k(   11) = (   0.2500000   0.0833333   0.4166667), wk =   0.1111111
        k(   12) = (  -0.0833333   0.7500000   0.0833333), wk =   0.0555556
        k(   13) = (   0.7500000  -0.0833333   0.9166667), wk =   0.1111111
        k(   14) = (   0.5833333   0.0833333   0.7500000), wk =   0.1111111
        k(   15) = (   0.4166667   0.2500000   0.5833333), wk =   0.1111111
        k(   16) = (  -0.0833333  -0.9166667   0.0833333), wk =   0.0555556
        k(   17) = (  -0.2500000  -0.7500000  -0.0833333), wk =   0.1111111
        k(   18) = (  -0.0833333  -0.5833333   0.0833333), wk =   0.0555556
        k(   19) = (  -0.2500000   0.2500000   0.2500000), wk =   0.0185185
        k(   20) = (  -0.4166667   0.4166667   0.0833333), wk =   0.0555556
        k(   21) = (   0.4166667  -0.4166667   0.9166667), wk =   0.0555556
        k(   22) = (   0.2500000  -0.2500000   0.7500000), wk =   0.0555556
        k(   23) = (  -0.2500000   0.5833333   0.2500000), wk =   0.0555556
        k(   24) = (   0.5833333  -0.2500000   1.0833333), wk =   0.1111111
        k(   25) = (   0.4166667  -0.0833333   0.9166667), wk =   0.1111111
        k(   26) = (  -0.2500000  -1.0833333   0.2500000), wk =   0.0555556
        k(   27) = (  -0.4166667   0.4166667   0.4166667), wk =   0.0185185
        k(   28) = (   0.4166667  -0.4166667   1.2500000), wk =   0.0555556

     Dense  grid:    20875 G-vectors     FFT dimensions: (  40,  40,  40)

     Estimated max dynamical RAM per process >       9.16 MB

     Estimated total dynamical RAM >     322.62 MB

     Initial potential from superposition of free atoms

     starting charge       7.9989, renormalised to       8.0000
     Starting wfcs are    8 randomized atomic wfcs

     total cpu time spent up to now is        0.2 secs

     Self-consistent Calculation

     iteration #  1     ecut=    70.00 Ry     beta= 0.70
     Davidson diagonalization with overlap
     ethr =  1.00E-02,  avg # of iterations =  2.0

     Threshold (ethr) on eigenvalues was too large:
     Diagonalizing with lowered threshold

     Davidson diagonalization with overlap
     ethr =  6.11E-04,  avg # of iterations =  2.0

     total cpu time spent up to now is        0.3 secs

     total energy              =     -17.04762058 Ry
     estimated scf accuracy    <       0.05798752 Ry

     iteration #  2     ecut=    70.00 Ry     beta= 0.70
     Davidson diagonalization with overlap
     ethr =  7.25E-04,  avg # of iterations =  1.0

     total cpu time spent up to now is        0.3 secs

     total energy              =     -17.04993927 Ry
     estimated scf accuracy    <       0.00250678 Ry

     iteration #  3     ecut=    70.00 Ry     beta= 0.70
     Davidson diagonalization with overlap
     ethr =  3.13E-05,  avg # of iterations =  3.0

     total cpu time spent up to now is        0.4 secs

     total energy              =     -17.05082344 Ry
     estimated scf accuracy    <       0.00009645 Ry

     iteration #  4     ecut=    70.00 Ry     beta= 0.70
     Davidson diagonalization with overlap
     ethr =  1.21E-06,  avg # of iterations =  4.3

     total cpu time spent up to now is        0.4 secs

     total energy              =     -17.05089785 Ry
     estimated scf accuracy    <       0.00000283 Ry

     iteration #  5     ecut=    70.00 Ry     beta= 0.70
     Davidson diagonalization with overlap
     ethr =  3.54E-08,  avg # of iterations =  4.9

     total cpu time spent up to now is        0.5 secs

     total energy              =     -17.05090099 Ry
     estimated scf accuracy    <       0.00000018 Ry

     iteration #  6     ecut=    70.00 Ry     beta= 0.70
     Davidson diagonalization with overlap
     ethr =  2.30E-09,  avg # of iterations =  3.3

     total cpu time spent up to now is        0.5 secs

     total energy              =     -17.05090106 Ry
     estimated scf accuracy    <       0.00000002 Ry

     iteration #  7     ecut=    70.00 Ry     beta= 0.70
     Davidson diagonalization with overlap
     ethr =  2.77E-10,  avg # of iterations =  2.9

     total cpu time spent up to now is        0.6 secs

     End of self-consistent calculation

          k =-0.0833 0.0833 0.0833 (  2667 PWs)   bands (ev):

    -5.7561   5.3866   6.1106   6.1106

          k =-0.2500 0.2500-0.0833 (  2621 PWs)   bands (ev):

    -5.2692   3.2787   4.8359   5.9020

          k =-0.4167 0.4167-0.2500 (  2618 PWs)   bands (ev):

    -4.1491   0.4558   4.3704   5.2525

          k = 0.4167-0.4167 0.5833 (  2604 PWs)   bands (ev):

    -3.4239  -0.7235   4.4440   4.8612

          k = 0.2500-0.2500 0.4167 (  2618 PWs)   bands (ev):

    -4.5725   1.3222   4.9163   4.9543

          k = 0.0833-0.0833 0.2500 (  2643 PWs)   bands (ev):

    -5.5104   4.3092   5.4447   5.6431

          k =-0.0833 0.4167 0.0833 (  2627 PWs)   bands (ev):

    -5.0231   3.1094   4.6844   4.6977

          k =-0.2500 0.5833-0.0833 (  2613 PWs)   bands (ev):

    -4.0918   1.2428   3.3199   4.3008

          k = 0.5833-0.2500 0.7500 (  2616 PWs)   bands (ev):

    -2.9383  -0.5645   2.7090   4.0652

          k = 0.4167-0.0833 0.5833 (  2617 PWs)   bands (ev):

    -3.6856   0.5301   2.6549   4.5685

          k = 0.2500 0.0833 0.4167 (  2624 PWs)   bands (ev):

    -4.7922   2.2460   4.0374   5.2604

          k =-0.0833 0.7500 0.0833 (  2617 PWs)   bands (ev):

    -3.3664   0.4197   3.2861   3.6484

          k = 0.7500-0.0833 0.9167 (  2608 PWs)   bands (ev):

    -2.1400  -0.9430   2.4039   3.2177

          k = 0.5833 0.0833 0.7500 (  2608 PWs)   bands (ev):

    -2.5099  -0.6178   1.9049   3.7798

          k = 0.4167 0.2500 0.5833 (  2622 PWs)   bands (ev):

    -3.5664  -0.1967   3.6417   4.6731

          k =-0.0833-0.9167 0.0833 (  2604 PWs)   bands (ev):

    -2.2385  -0.9535   3.0091   3.4291

          k =-0.2500-0.7500-0.0833 (  2615 PWs)   bands (ev):

    -3.1914   0.1893   2.7413   3.5675

          k =-0.0833-0.5833 0.0833 (  2620 PWs)   bands (ev):

    -4.3033   1.8031   3.8480   4.0788

          k =-0.2500 0.2500 0.2500 (  2632 PWs)   bands (ev):

    -5.0343   2.2731   5.4857   5.4857

          k =-0.4167 0.4167 0.0833 (  2620 PWs)   bands (ev):

    -4.3392   1.3430   3.2813   5.3165

          k = 0.4167-0.4167 0.9167 (  2613 PWs)   bands (ev):

    -3.1274  -0.1140   2.1362   4.5076

          k = 0.2500-0.2500 0.7500 (  2618 PWs)   bands (ev):

    -3.0761  -0.1941   2.6355   4.0115

          k =-0.2500 0.5833 0.2500 (  2613 PWs)   bands (ev):

    -3.9042   0.5133   3.7736   4.3933

          k = 0.5833-0.2500 1.0833 (  2619 PWs)   bands (ev):

    -2.8765  -0.2149   2.2381   3.5572

          k = 0.4167-0.0833 0.9167 (  2613 PWs)   bands (ev):

    -2.0245  -0.9506   2.0592   2.8637

          k =-0.2500-1.0833 0.2500 (  2605 PWs)   bands (ev):

    -2.2385  -0.8649   1.9289   3.8127

          k =-0.4167 0.4167 0.4167 (  2602 PWs)   bands (ev):

    -3.8074  -0.3119   5.0941   5.0941

          k = 0.4167-0.4167 1.2500 (  2605 PWs)   bands (ev):

    -3.1840  -0.6106   3.2018   4.6388

     highest occupied level (ev):     6.1106

!    total energy              =     -17.05090107 Ry
     estimated scf accuracy    <          2.6E-11 Ry

     The total energy is the sum of the following terms:
     one-electron contribution =       5.01080433 Ry
     hartree contribution      =       1.07710761 Ry
     xc contribution           =      -6.22231172 Ry
     ewald contribution        =     -16.91650128 Ry

     convergence has been achieved in   7 iterations

     Forces acting on atoms (cartesian axes, Ry/au):

     atom    1 type  1   force =    -0.00000000   -0.00000000   -0.00000000
     atom    2 type  1   force =     0.00000000    0.00000000    0.00000000

     Total force =     0.000000     Total SCF correction =     0.000000

     Writing all to output data dir /fastscratch/tsievers/QE_TMP_DIR/si_ph_bench_poolsize_2_n_procs_48_0.save/
 
     init_run     :      0.14s CPU      0.15s WALL (       1 calls)
     electrons    :      0.38s CPU      0.39s WALL (       1 calls)
     forces       :      0.01s CPU      0.02s WALL (       1 calls)

     Called by init_run:
     wfcinit      :      0.01s CPU      0.02s WALL (       1 calls)
     potinit      :      0.05s CPU      0.05s WALL (       1 calls)
     hinit0       :      0.03s CPU      0.03s WALL (       1 calls)

     Called by electrons:
     c_bands      :      0.26s CPU      0.26s WALL (       8 calls)
     sum_band     :      0.06s CPU      0.06s WALL (       8 calls)
     v_of_rho     :      0.02s CPU      0.03s WALL (       8 calls)
     mix_rho      :      0.01s CPU      0.01s WALL (       8 calls)

     Called by c_bands:
     init_us_2    :      0.02s CPU      0.02s WALL (      36 calls)
     init_us_2:cp :      0.02s CPU      0.02s WALL (      36 calls)
     cegterg      :      0.18s CPU      0.18s WALL (      16 calls)

     Called by *egterg:
     cdiaghg      :      0.00s CPU      0.00s WALL (      70 calls)
     h_psi        :      0.17s CPU      0.17s WALL (      74 calls)
     g_psi        :      0.00s CPU      0.00s WALL (      56 calls)

     Called by h_psi:
     h_psi:calbec :      0.01s CPU      0.01s WALL (      74 calls)
     vloc_psi     :      0.14s CPU      0.14s WALL (      74 calls)
     add_vuspsi   :      0.01s CPU      0.01s WALL (      74 calls)

     General routines
     calbec       :      0.01s CPU      0.01s WALL (      82 calls)
     fft          :      0.01s CPU      0.02s WALL (      28 calls)
     ffts         :      0.00s CPU      0.00s WALL (       8 calls)
     fftw         :      0.14s CPU      0.14s WALL (     528 calls)
 
     Parallel routines
 
     PWSCF        :      0.57s CPU      1.41s WALL

 
   This run was terminated on:  13:30:57  19May2022            

=------------------------------------------------------------------------------=
   JOB DONE.
=------------------------------------------------------------------------------=

     Program PHONON v.7.0 starts on 19May2022 at 13:31: 1 

     This program is part of the open-source Quantum ESPRESSO suite
     for quantum simulation of materials; please cite
         "P. Giannozzi et al., J. Phys.:Condens. Matter 21 395502 (2009);
         "P. Giannozzi et al., J. Phys.:Condens. Matter 29 465901 (2017);
         "P. Giannozzi et al., J. Chem. Phys. 152 154105 (2020);
          URL http://www.quantum-espresso.org", 
     in publications or presentations arising from this work. More details at
     http://www.quantum-espresso.org/quote

     Parallel version (MPI), running on    48 processors

     MPI processes distributed on     3 nodes
     path-images division:  nimage    =       8
     R & G space division:  proc/nbgrp/npool/nimage =       6
     17670 MiB available memory on the printing compute node when the environment starts
 
     Reading input from in_files/si_ph_bench_poolsize_2_n_procs_48_0.ph
      Title line not specified: using 'default'.

     Reading xml data from directory:

     /fastscratch/tsievers/QE_TMP_DIR/si_ph_bench_poolsize_2_n_procs_48_0.save/

     IMPORTANT: XC functional enforced from input :
     Exchange-correlation= PW
                           (   1   4   0   0   0   0   0)
     Any further DFT definition will be discarded
     Please, verify this is what you really want

 
     Parallelization info
     --------------------
     sticks:   dense  smooth     PW     G-vecs:    dense   smooth      PW
     Min         167     167     50                 3478     3478     579
     Max         168     168     51                 3481     3481     582
     Sum        1003    1003    301                20875    20875    3479
 
     Using Slab Decomposition
 
     Reading collected, re-writing distributed wavefunctions


     Dynamical matrices for ( 6, 6, 6)  uniform grid of q-points
     (  16 q-points):
       N         xq(1)         xq(2)         xq(3) 
       1   0.000000000   0.000000000   0.000000000
       2  -0.166666667   0.166666667  -0.166666667
       3  -0.333333333   0.333333333  -0.333333333
       4   0.500000000  -0.500000000   0.500000000
       5   0.000000000   0.333333333   0.000000000
       6  -0.166666667   0.500000000  -0.166666667
       7   0.666666667  -0.333333333   0.666666667
       8   0.500000000  -0.166666667   0.500000000
       9   0.333333333   0.000000000   0.333333333
      10   0.000000000   0.666666667   0.000000000
      11   0.833333333  -0.166666667   0.833333333
      12   0.666666667  -0.000000000   0.666666667
      13   0.000000000  -1.000000000   0.000000000
      14   0.666666667  -0.333333333   1.000000000
      15   0.500000000  -0.166666667   0.833333333
      16  -0.333333333  -1.000000000   0.000000000

      Image parallelization. There are  8 images and    76 representations
      The estimated total work is  1512 self-consistent (scf) runs
      I am image number     0 and my work is about  189 scf runs. I calculate: 
      q point number     1, representations:
       0 1 2
      q point number     2, representations:
       0 1 2 3 4
      q point number     3, representations:
       0 1 2 3 4
      q point number     4, representations:
       0 1 2 3 4
      q point number     5, representations:
       0 1 2 3 4

     Calculation of q =    0.0000000   0.0000000   0.0000000

     default                                                                    

     bravais-lattice index     =            2
     lattice parameter (alat)  =      10.1899  a.u.
     unit-cell volume          =     264.5151 (a.u.)^3
     number of atoms/cell      =            2
     number of atomic types    =            1
     kinetic-energy cut-off    =      70.0000  Ry
     charge density cut-off    =     280.0000  Ry
     convergence threshold     =      1.0E-15
     beta                      =       0.7000
     number of iterations used =            4
     Exchange-correlation= PW
                           (   1   4   0   0   0   0   0)


     celldm(1)=   10.18990  celldm(2)=    0.00000  celldm(3)=    0.00000
     celldm(4)=    0.00000  celldm(5)=    0.00000  celldm(6)=    0.00000

     crystal axes: (cart. coord. in units of alat)
               a(1) = ( -0.5000  0.0000  0.5000 )  
               a(2) = (  0.0000  0.5000  0.5000 )  
               a(3) = ( -0.5000  0.5000  0.0000 )  

     reciprocal axes: (cart. coord. in units 2 pi/alat)
               b(1) = ( -1.0000 -1.0000  1.0000 )  
               b(2) = (  1.0000  1.0000  1.0000 )  
               b(3) = ( -1.0000  1.0000 -1.0000 )  


     Atoms inside the unit cell: 

     Cartesian axes

     site n.  atom      mass           positions (alat units)
        1     Si  28.0855   tau(    1) = (    0.00000    0.00000    0.00000  )
        2     Si  28.0855   tau(    2) = (   -0.25000    0.25000    0.25000  )

     Computing dynamical matrix for 
                    q = (   0.0000000   0.0000000   0.0000000 )
 
     49 Sym.Ops. (with q -> -q+G )


     G cutoff =  736.4420  (   3479 G-vectors)     FFT grid: ( 40, 40, 40)
     number of k points=    28

     PseudoPot. # 1 for Si read from file:
     ./pseudos/Si.nc.UPF
     MD5 check sum: 9e2d726316af3d4752eea8ab0afbb951
     Pseudo is Norm-conserving + core correction, Zval =  4.0
     Generated using ONCVPSP code by D. R. Hamann
     Using radial grid of 1510 points,  6 beta functions with: 
                l(1) =   0
                l(2) =   0
                l(3) =   1
                l(4) =   1
                l(5) =   2
                l(6) =   2

     Mode symmetry, O_h (m-3m)  point group:


     Electric field:
     Dielectric constant
     Born effective charges in two ways 


     Atomic displacements:
     There are    2 irreducible representations

     Representation     1      3 modes -  To be done

     Representation     2      3 modes -  To be done



     Alpha used in Ewald sum =   2.8000
     PHONON       :      1.32s CPU      3.08s WALL


     Electric Fields Calculation

      iter #   1 total cpu time :     6.4 secs   av.it.:   6.5
      thresh= 1.000E-02 alpha_mix =  0.700 |ddv_scf|^2 =  1.044E-07

      iter #   2 total cpu time :     8.4 secs   av.it.:  11.7
      thresh= 3.230E-05 alpha_mix =  0.700 |ddv_scf|^2 =  4.472E-09

      iter #   3 total cpu time :    10.2 secs   av.it.:  11.6
      thresh= 6.688E-06 alpha_mix =  0.700 |ddv_scf|^2 =  5.041E-11

      iter #   4 total cpu time :    12.0 secs   av.it.:  11.9
      thresh= 7.100E-07 alpha_mix =  0.700 |ddv_scf|^2 =  2.991E-13

      iter #   5 total cpu time :    13.5 secs   av.it.:  10.9
      thresh= 5.469E-08 alpha_mix =  0.700 |ddv_scf|^2 =  1.097E-16

     End of electric fields calculation

          Dielectric constant in cartesian axis 

          (      13.312059008       0.000000000      -0.000000000 )
          (      -0.000000000      13.312059008      -0.000000000 )
          (      -0.000000000      -0.000000000      13.312059008 )

          Effective charges (d Force / dE) in cartesian axis without acoustic sum rule applied (asr)

           atom      1   Si Mean Z*:       -0.00676
      Ex  (       -0.00676        0.00000        0.00000 )
      Ey  (        0.00000       -0.00676       -0.00000 )
      Ez  (        0.00000       -0.00000       -0.00676 )
           atom      2   Si Mean Z*:       -0.00676
      Ex  (       -0.00676        0.00000       -0.00000 )
      Ey  (        0.00000       -0.00676       -0.00000 )
      Ez  (        0.00000       -0.00000       -0.00676 )

          Effective charges Sum: Mean:       -0.01353
             -0.01353        0.00000        0.00000
              0.00000       -0.01353       -0.00000
             -0.00000       -0.00000       -0.01353

          Effective charges (d Force / dE) in cartesian axis with asr applied: 
           atom      1   Si Mean Z*:        0.00000
      E*x (        0.00000        0.00000        0.00000 )
      E*y (       -0.00000        0.00000       -0.00000 )
      E*z (        0.00000        0.00000        0.00000 )
           atom      2   Si Mean Z*:       -0.00000
      E*x (        0.00000       -0.00000       -0.00000 )
      E*y (        0.00000        0.00000        0.00000 )
      E*z (        0.00000       -0.00000       -0.00000 )


     Representation #   1 modes #   1   2   3

     Self-consistent Calculation

      iter #   1 total cpu time :    18.3 secs   av.it.:   5.8
      thresh= 1.000E-02 alpha_mix =  0.700 |ddv_scf|^2 =  1.504E-08

      iter #   2 total cpu time :    20.5 secs   av.it.:  11.6
      thresh= 1.227E-05 alpha_mix =  0.700 |ddv_scf|^2 =  3.381E-10

      iter #   3 total cpu time :    24.3 secs   av.it.:  11.7
      thresh= 1.839E-06 alpha_mix =  0.700 |ddv_scf|^2 =  1.262E-11

      iter #   4 total cpu time :    26.0 secs   av.it.:  11.5
      thresh= 3.552E-07 alpha_mix =  0.700 |ddv_scf|^2 =  4.087E-14

      iter #   5 total cpu time :    27.7 secs   av.it.:  11.8
      thresh= 2.022E-08 alpha_mix =  0.700 |ddv_scf|^2 =  1.897E-16

     End of self-consistent calculation

     Convergence has been achieved 


     Representation #   2 modes #   4   5   6

     Self-consistent Calculation

      iter #   1 total cpu time :    29.0 secs   av.it.:   6.0
      thresh= 1.000E-02 alpha_mix =  0.700 |ddv_scf|^2 =  1.086E-08

      iter #   2 total cpu time :    32.3 secs   av.it.:  11.9
      thresh= 1.042E-05 alpha_mix =  0.700 |ddv_scf|^2 =  3.903E-10

      iter #   3 total cpu time :    34.4 secs   av.it.:  11.8
      thresh= 1.976E-06 alpha_mix =  0.700 |ddv_scf|^2 =  1.777E-11

      iter #   4 total cpu time :    38.8 secs   av.it.:  11.8
      thresh= 4.216E-07 alpha_mix =  0.700 |ddv_scf|^2 =  3.183E-14

      iter #   5 total cpu time :    41.2 secs   av.it.:  11.9
      thresh= 1.784E-08 alpha_mix =  0.700 |ddv_scf|^2 =  8.638E-17

     End of self-consistent calculation

     Convergence has been achieved 
 
     Number of q in the star =    1
     List of q in the star:
          1   0.000000000   0.000000000   0.000000000

          Dielectric constant in cartesian axis 

          (      13.312059008       0.000000000      -0.000000000 )
          (      -0.000000000      13.312059008      -0.000000000 )
          (      -0.000000000      -0.000000000      13.312059008 )

          Effective charges (d Force / dE) in cartesian axis without acoustic sum rule applied (asr)

           atom      1   Si Mean Z*:       -0.00676
      Ex  (       -0.00676        0.00000        0.00000 )
      Ey  (        0.00000       -0.00676       -0.00000 )
      Ez  (        0.00000       -0.00000       -0.00676 )
           atom      2   Si Mean Z*:       -0.00676
      Ex  (       -0.00676        0.00000       -0.00000 )
      Ey  (        0.00000       -0.00676       -0.00000 )
      Ez  (        0.00000       -0.00000       -0.00676 )

          Effective charges Sum: Mean:       -0.01353
             -0.01353        0.00000        0.00000
              0.00000       -0.01353       -0.00000
             -0.00000       -0.00000       -0.01353

          Effective charges (d Force / dE) in cartesian axis with asr applied: 
           atom      1   Si Mean Z*:        0.00000
      E*x (        0.00000        0.00000        0.00000 )
      E*y (       -0.00000        0.00000       -0.00000 )
      E*z (        0.00000        0.00000        0.00000 )
           atom      2   Si Mean Z*:       -0.00000
      E*x (        0.00000       -0.00000       -0.00000 )
      E*y (        0.00000        0.00000        0.00000 )
      E*z (        0.00000       -0.00000       -0.00000 )

          Effective charges (d P / du) in cartesian axis 

           atom      1   Si 
      Px  (       -0.00683       -0.00000       -0.00000 )
      Py  (       -0.00000       -0.00683       -0.00000 )
      Pz  (        0.00000        0.00000       -0.00683 )
           atom      2   Si 
      Px  (       -0.00683       -0.00000       -0.00000 )
      Py  (       -0.00000       -0.00683        0.00000 )
      Pz  (        0.00000        0.00000       -0.00683 )

     Diagonalizing the dynamical matrix

     q = (    0.000000000   0.000000000   0.000000000 ) 

 **************************************************************************
     freq (    1) =      -0.112146 [THz] =      -3.740785 [cm-1]
     freq (    2) =      -0.112146 [THz] =      -3.740785 [cm-1]
     freq (    3) =      -0.112146 [THz] =      -3.740785 [cm-1]
     freq (    4) =      15.412129 [THz] =     514.093278 [cm-1]
     freq (    5) =      15.412129 [THz] =     514.093278 [cm-1]
     freq (    6) =      15.412129 [THz] =     514.093278 [cm-1]
 **************************************************************************

     Mode symmetry, O_h (m-3m)  point group:

     freq (   1-   3) =         -3.7  [cm-1]   --> T_1u G_15  G_4- I  
     freq (   4-   6) =        514.1  [cm-1]   --> T_2g G_25' G_5+ R  

     Calculation of q =   -0.1666667   0.1666667  -0.1666667

     Subspace diagonalization in iterative solution of the eigenvalue problem:
     one sub-group per band group will be used
     scalapack distributed-memory algorithm (size of sub-group:  2*  2 procs)

 
     Parallelization info
     --------------------
     sticks:   dense  smooth     PW     G-vecs:    dense   smooth      PW
     Min         167     167     52                 3478     3478     615
     Max         168     168     53                 3481     3481     618
     Sum        1003    1003    313                20875    20875    3695
 
     Using Slab Decomposition
 

     Title: 
     default                                                                    


     bravais-lattice index     =            2
     lattice parameter (alat)  =      10.1899  a.u.
     unit-cell volume          =     264.5151 (a.u.)^3
     number of atoms/cell      =            2
     number of atomic types    =            1
     number of electrons       =         8.00
     number of Kohn-Sham states=            4
     kinetic-energy cutoff     =      70.0000  Ry
     charge density cutoff     =     280.0000  Ry
     Exchange-correlation= PW
                           (   1   4   0   0   0   0   0)

     celldm(1)=  10.189905  celldm(2)=   0.000000  celldm(3)=   0.000000
     celldm(4)=   0.000000  celldm(5)=   0.000000  celldm(6)=   0.000000

     crystal axes: (cart. coord. in units of alat)
               a(1) = (  -0.500000   0.000000   0.500000 )  
               a(2) = (   0.000000   0.500000   0.500000 )  
               a(3) = (  -0.500000   0.500000   0.000000 )  

     reciprocal axes: (cart. coord. in units 2 pi/alat)
               b(1) = ( -1.000000 -1.000000  1.000000 )  
               b(2) = (  1.000000  1.000000  1.000000 )  
               b(3) = ( -1.000000  1.000000 -1.000000 )  


     PseudoPot. # 1 for Si read from file:
     ./pseudos/Si.nc.UPF
     MD5 check sum: 9e2d726316af3d4752eea8ab0afbb951
     Pseudo is Norm-conserving + core correction, Zval =  4.0
     Generated using ONCVPSP code by D. R. Hamann
     Using radial grid of 1510 points,  6 beta functions with: 
                l(1) =   0
                l(2) =   0
                l(3) =   1
                l(4) =   1
                l(5) =   2
                l(6) =   2

     atomic species   valence    mass     pseudopotential
        Si             4.00    28.08550     Si( 1.00)

     48 Sym. Ops., with inversion, found



   Cartesian axes

     site n.     atom                  positions (alat units)
         1           Si  tau(   1) = (   0.0000000   0.0000000   0.0000000  )
         2           Si  tau(   2) = (  -0.2500000   0.2500000   0.2500000  )

     number of k points=   364

     Number of k-points >= 100: set verbosity='high' to print them.

     Dense  grid:    20875 G-vectors     FFT dimensions: (  40,  40,  40)

     Estimated max dynamical RAM per process >       3.07 MB

     Estimated total dynamical RAM >      18.43 MB

     The potential is recalculated from file :
     /fastscratch/tsievers/QE_TMP_DIR/_ph0/si_ph_bench_poolsize_2_n_procs_48_0.save/charge-density

     Starting wfcs are    8 atomic wfcs

     Band Structure Calculation
     Davidson diagonalization with overlap

     ethr =  1.25E-10,  avg # of iterations = 12.9

     total cpu time spent up to now is       40.4 secs

     End of band structure calculation

     Number of k-points >= 100: set verbosity='high' to print the bands.

     highest occupied level (ev):     6.1106

     Writing config to output data dir /fastscratch/tsievers/QE_TMP_DIR/_ph0/si_ph_bench_poolsize_2_n_procs_48_0.save/

     default                                                                    

     bravais-lattice index     =            2
     lattice parameter (alat)  =      10.1899  a.u.
     unit-cell volume          =     264.5151 (a.u.)^3
     number of atoms/cell      =            2
     number of atomic types    =            1
     kinetic-energy cut-off    =      70.0000  Ry
     charge density cut-off    =     280.0000  Ry
     convergence threshold     =      1.0E-15
     beta                      =       0.7000
     number of iterations used =            4
     Exchange-correlation= PW
                           (   1   4   0   0   0   0   0)


     celldm(1)=   10.18990  celldm(2)=    0.00000  celldm(3)=    0.00000
     celldm(4)=    0.00000  celldm(5)=    0.00000  celldm(6)=    0.00000

     crystal axes: (cart. coord. in units of alat)
               a(1) = ( -0.5000  0.0000  0.5000 )  
               a(2) = (  0.0000  0.5000  0.5000 )  
               a(3) = ( -0.5000  0.5000  0.0000 )  

     reciprocal axes: (cart. coord. in units 2 pi/alat)
               b(1) = ( -1.0000 -1.0000  1.0000 )  
               b(2) = (  1.0000  1.0000  1.0000 )  
               b(3) = ( -1.0000  1.0000 -1.0000 )  


     Atoms inside the unit cell: 

     Cartesian axes

     site n.  atom      mass           positions (alat units)
        1     Si  28.0855   tau(    1) = (    0.00000    0.00000    0.00000  )
        2     Si  28.0855   tau(    2) = (   -0.25000    0.25000    0.25000  )

     Computing dynamical matrix for 
                    q = (  -0.1666667   0.1666667  -0.1666667 )
 
      6 Sym.Ops. (no q -> -q+G )


     G cutoff =  736.4420  (   3481 G-vectors)     FFT grid: ( 40, 40, 40)
     number of k points=   364

     PseudoPot. # 1 for Si read from file:
     ./pseudos/Si.nc.UPF
     MD5 check sum: 9e2d726316af3d4752eea8ab0afbb951
     Pseudo is Norm-conserving + core correction, Zval =  4.0
     Generated using ONCVPSP code by D. R. Hamann
     Using radial grid of 1510 points,  6 beta functions with: 
                l(1) =   0
                l(2) =   0
                l(3) =   1
                l(4) =   1
                l(5) =   2
                l(6) =   2

     Mode symmetry, C_3v (3m)   point group:


     Atomic displacements:
     There are    4 irreducible representations

     Representation     1      1 modes -  To be done

     Representation     2      1 modes -  To be done

     Representation     3      2 modes -  To be done

     Representation     4      2 modes -  To be done



     Alpha used in Ewald sum =   2.8000
     PHONON       :   1m12.49s CPU   1m25.44s WALL



     Representation #   1 mode #   1

     Self-consistent Calculation

      iter #   1 total cpu time :    87.6 secs   av.it.:   6.6
      thresh= 1.000E-02 alpha_mix =  0.700 |ddv_scf|^2 =  1.408E-03

      iter #   2 total cpu time :    90.1 secs   av.it.:   8.8
      thresh= 3.752E-03 alpha_mix =  0.700 |ddv_scf|^2 =  4.612E-02

      iter #   3 total cpu time :    92.4 secs   av.it.:   7.6
      thresh= 1.000E-02 alpha_mix =  0.700 |ddv_scf|^2 =  3.758E-07

      iter #   4 total cpu time :    95.0 secs   av.it.:   9.1
      thresh= 6.130E-05 alpha_mix =  0.700 |ddv_scf|^2 =  1.230E-08

      iter #   5 total cpu time :    98.6 secs   av.it.:   9.5
      thresh= 1.109E-05 alpha_mix =  0.700 |ddv_scf|^2 =  7.967E-10

      iter #   6 total cpu time :   101.1 secs   av.it.:   8.4
      thresh= 2.823E-06 alpha_mix =  0.700 |ddv_scf|^2 =  1.461E-09

      iter #   7 total cpu time :   103.5 secs   av.it.:   8.0
      thresh= 3.822E-06 alpha_mix =  0.700 |ddv_scf|^2 =  8.484E-11

      iter #   8 total cpu time :   107.7 secs   av.it.:   8.4
      thresh= 9.211E-07 alpha_mix =  0.700 |ddv_scf|^2 =  6.752E-13

      iter #   9 total cpu time :   110.7 secs   av.it.:   8.2
      thresh= 8.217E-08 alpha_mix =  0.700 |ddv_scf|^2 =  1.515E-14

      iter #  10 total cpu time :   115.2 secs   av.it.:   8.5
      thresh= 1.231E-08 alpha_mix =  0.700 |ddv_scf|^2 =  1.413E-15

      iter #  11 total cpu time :   117.8 secs   av.it.:   9.0
      thresh= 3.759E-09 alpha_mix =  0.700 |ddv_scf|^2 =  2.071E-16

     End of self-consistent calculation

     Convergence has been achieved 


     Representation #   2 mode #   2

     Self-consistent Calculation

      iter #   1 total cpu time :   120.7 secs   av.it.:   6.6
      thresh= 1.000E-02 alpha_mix =  0.700 |ddv_scf|^2 =  1.408E-03

      iter #   2 total cpu time :   123.4 secs   av.it.:   8.8
      thresh= 3.752E-03 alpha_mix =  0.700 |ddv_scf|^2 =  4.612E-02

      iter #   3 total cpu time :   126.6 secs   av.it.:   7.6
      thresh= 1.000E-02 alpha_mix =  0.700 |ddv_scf|^2 =  3.758E-07

      iter #   4 total cpu time :   129.3 secs   av.it.:   9.1
      thresh= 6.130E-05 alpha_mix =  0.700 |ddv_scf|^2 =  1.230E-08

      iter #   5 total cpu time :   132.6 secs   av.it.:   9.5
      thresh= 1.109E-05 alpha_mix =  0.700 |ddv_scf|^2 =  7.967E-10

      iter #   6 total cpu time :   135.8 secs   av.it.:   8.4
      thresh= 2.823E-06 alpha_mix =  0.700 |ddv_scf|^2 =  1.461E-09

      iter #   7 total cpu time :   140.3 secs   av.it.:   8.0
      thresh= 3.822E-06 alpha_mix =  0.700 |ddv_scf|^2 =  8.484E-11

      iter #   8 total cpu time :   142.8 secs   av.it.:   8.4
      thresh= 9.211E-07 alpha_mix =  0.700 |ddv_scf|^2 =  6.752E-13

      iter #   9 total cpu time :   146.5 secs   av.it.:   8.2
      thresh= 8.217E-08 alpha_mix =  0.700 |ddv_scf|^2 =  1.515E-14

      iter #  10 total cpu time :   151.2 secs   av.it.:   8.5
      thresh= 1.231E-08 alpha_mix =  0.700 |ddv_scf|^2 =  1.413E-15

      iter #  11 total cpu time :   153.7 secs   av.it.:   9.0
      thresh= 3.759E-09 alpha_mix =  0.700 |ddv_scf|^2 =  2.071E-16

     End of self-consistent calculation

     Convergence has been achieved 


     Representation #   3 modes #   3   4

     Self-consistent Calculation

      iter #   1 total cpu time :   159.0 secs   av.it.:   6.1
      thresh= 1.000E-02 alpha_mix =  0.700 |ddv_scf|^2 =  3.672E-08

      iter #   2 total cpu time :   168.8 secs   av.it.:  11.4
      thresh= 1.916E-05 alpha_mix =  0.700 |ddv_scf|^2 =  1.634E-09

      iter #   3 total cpu time :   175.6 secs   av.it.:  11.3
      thresh= 4.042E-06 alpha_mix =  0.700 |ddv_scf|^2 =  4.267E-11

      iter #   4 total cpu time :   183.7 secs   av.it.:  11.4
      thresh= 6.532E-07 alpha_mix =  0.700 |ddv_scf|^2 =  4.923E-13

      iter #   5 total cpu time :   191.8 secs   av.it.:  11.4
      thresh= 7.016E-08 alpha_mix =  0.700 |ddv_scf|^2 =  1.045E-14

      iter #   6 total cpu time :   198.9 secs   av.it.:  11.6
      thresh= 1.022E-08 alpha_mix =  0.700 |ddv_scf|^2 =  4.744E-17

     End of self-consistent calculation

     Convergence has been achieved 


     Representation #   4 modes #   5   6

     Self-consistent Calculation

      iter #   1 total cpu time :   203.0 secs   av.it.:   6.0
      thresh= 1.000E-02 alpha_mix =  0.700 |ddv_scf|^2 =  3.672E-08

      iter #   2 total cpu time :   209.3 secs   av.it.:  11.4
      thresh= 1.916E-05 alpha_mix =  0.700 |ddv_scf|^2 =  1.634E-09

      iter #   3 total cpu time :   218.6 secs   av.it.:  11.3
      thresh= 4.043E-06 alpha_mix =  0.700 |ddv_scf|^2 =  4.267E-11

      iter #   4 total cpu time :   224.9 secs   av.it.:  11.4
      thresh= 6.532E-07 alpha_mix =  0.700 |ddv_scf|^2 =  4.925E-13

      iter #   5 total cpu time :   257.5 secs   av.it.:  11.3
      thresh= 7.018E-08 alpha_mix =  0.700 |ddv_scf|^2 =  1.046E-14

      iter #   6 total cpu time :   263.9 secs   av.it.:  11.6
      thresh= 1.023E-08 alpha_mix =  0.700 |ddv_scf|^2 =  4.741E-17

     End of self-consistent calculation

     Convergence has been achieved 
 
     Number of q in the star =    8
     List of q in the star:
          1  -0.166666667   0.166666667  -0.166666667
          2   0.166666667   0.166666667   0.166666667
          3  -0.166666667  -0.166666667  -0.166666667
          4   0.166666667  -0.166666667   0.166666667
          5   0.166666667  -0.166666667  -0.166666667
          6   0.166666667   0.166666667  -0.166666667
          7  -0.166666667  -0.166666667   0.166666667
          8  -0.166666667   0.166666667   0.166666667

     Diagonalizing the dynamical matrix

     q = (   -0.166666667   0.166666667  -0.166666667 ) 

 **************************************************************************
     freq (    1) =       2.202808 [THz] =      73.477753 [cm-1]
     freq (    2) =       2.202808 [THz] =      73.477753 [cm-1]
     freq (    3) =       4.748107 [THz] =     158.379818 [cm-1]
     freq (    4) =      15.023916 [THz] =     501.143897 [cm-1]
     freq (    5) =      15.065898 [THz] =     502.544265 [cm-1]
     freq (    6) =      15.065898 [THz] =     502.544265 [cm-1]
 **************************************************************************

     Mode symmetry, C_3v (3m)   point group:

     freq (   1-   2) =         73.5  [cm-1]   --> E    L_3           
     freq (   3-   3) =        158.4  [cm-1]   --> A_1  L_1           
     freq (   4-   4) =        501.1  [cm-1]   --> A_1  L_1           
     freq (   5-   6) =        502.5  [cm-1]   --> E    L_3           

     Calculation of q =   -0.3333333   0.3333333  -0.3333333
 
     Parallelization info
     --------------------
     sticks:   dense  smooth     PW     G-vecs:    dense   smooth      PW
     Min         167     167     52                 3478     3478     639
     Max         168     168     53                 3481     3481     644
     Sum        1003    1003    313                20875    20875    3839
 
     Using Slab Decomposition
 

     Title: 
     default                                                                    


     bravais-lattice index     =            2
     lattice parameter (alat)  =      10.1899  a.u.
     unit-cell volume          =     264.5151 (a.u.)^3
     number of atoms/cell      =            2
     number of atomic types    =            1
     number of electrons       =         8.00
     number of Kohn-Sham states=            4
     kinetic-energy cutoff     =      70.0000  Ry
     charge density cutoff     =     280.0000  Ry
     Exchange-correlation= PW
                           (   1   4   0   0   0   0   0)

     celldm(1)=  10.189905  celldm(2)=   0.000000  celldm(3)=   0.000000
     celldm(4)=   0.000000  celldm(5)=   0.000000  celldm(6)=   0.000000

     crystal axes: (cart. coord. in units of alat)
               a(1) = (  -0.500000   0.000000   0.500000 )  
               a(2) = (   0.000000   0.500000   0.500000 )  
               a(3) = (  -0.500000   0.500000   0.000000 )  

     reciprocal axes: (cart. coord. in units 2 pi/alat)
               b(1) = ( -1.000000 -1.000000  1.000000 )  
               b(2) = (  1.000000  1.000000  1.000000 )  
               b(3) = ( -1.000000  1.000000 -1.000000 )  


     PseudoPot. # 1 for Si read from file:
     ./pseudos/Si.nc.UPF
     MD5 check sum: 9e2d726316af3d4752eea8ab0afbb951
     Pseudo is Norm-conserving + core correction, Zval =  4.0
     Generated using ONCVPSP code by D. R. Hamann
     Using radial grid of 1510 points,  6 beta functions with: 
                l(1) =   0
                l(2) =   0
                l(3) =   1
                l(4) =   1
                l(5) =   2
                l(6) =   2

     atomic species   valence    mass     pseudopotential
        Si             4.00    28.08550     Si( 1.00)

     48 Sym. Ops., with inversion, found



   Cartesian axes

     site n.     atom                  positions (alat units)
         1           Si  tau(   1) = (   0.0000000   0.0000000   0.0000000  )
         2           Si  tau(   2) = (  -0.2500000   0.2500000   0.2500000  )

     number of k points=   364

     Number of k-points >= 100: set verbosity='high' to print them.

     Dense  grid:    20875 G-vectors     FFT dimensions: (  40,  40,  40)

     Estimated max dynamical RAM per process >       3.09 MB

     Estimated total dynamical RAM >      18.51 MB

     The potential is recalculated from file :
     /fastscratch/tsievers/QE_TMP_DIR/_ph0/si_ph_bench_poolsize_2_n_procs_48_0.save/charge-density

     Starting wfcs are    8 atomic wfcs

     Band Structure Calculation
     Davidson diagonalization with overlap

     ethr =  1.25E-10,  avg # of iterations = 12.9

     total cpu time spent up to now is       52.4 secs

     End of band structure calculation

     Number of k-points >= 100: set verbosity='high' to print the bands.

     highest occupied level (ev):     6.1106

     Writing config to output data dir /fastscratch/tsievers/QE_TMP_DIR/_ph0/si_ph_bench_poolsize_2_n_procs_48_0.save/

     default                                                                    

     bravais-lattice index     =            2
     lattice parameter (alat)  =      10.1899  a.u.
     unit-cell volume          =     264.5151 (a.u.)^3
     number of atoms/cell      =            2
     number of atomic types    =            1
     kinetic-energy cut-off    =      70.0000  Ry
     charge density cut-off    =     280.0000  Ry
     convergence threshold     =      1.0E-15
     beta                      =       0.7000
     number of iterations used =            4
     Exchange-correlation= PW
                           (   1   4   0   0   0   0   0)


     celldm(1)=   10.18990  celldm(2)=    0.00000  celldm(3)=    0.00000
     celldm(4)=    0.00000  celldm(5)=    0.00000  celldm(6)=    0.00000

     crystal axes: (cart. coord. in units of alat)
               a(1) = ( -0.5000  0.0000  0.5000 )  
               a(2) = (  0.0000  0.5000  0.5000 )  
               a(3) = ( -0.5000  0.5000  0.0000 )  

     reciprocal axes: (cart. coord. in units 2 pi/alat)
               b(1) = ( -1.0000 -1.0000  1.0000 )  
               b(2) = (  1.0000  1.0000  1.0000 )  
               b(3) = ( -1.0000  1.0000 -1.0000 )  


     Atoms inside the unit cell: 

     Cartesian axes

     site n.  atom      mass           positions (alat units)
        1     Si  28.0855   tau(    1) = (    0.00000    0.00000    0.00000  )
        2     Si  28.0855   tau(    2) = (   -0.25000    0.25000    0.25000  )

     Computing dynamical matrix for 
                    q = (  -0.3333333   0.3333333  -0.3333333 )
 
      6 Sym.Ops. (no q -> -q+G )


     G cutoff =  736.4420  (   3479 G-vectors)     FFT grid: ( 40, 40, 40)
     number of k points=   364

     PseudoPot. # 1 for Si read from file:
     ./pseudos/Si.nc.UPF
     MD5 check sum: 9e2d726316af3d4752eea8ab0afbb951
     Pseudo is Norm-conserving + core correction, Zval =  4.0
     Generated using ONCVPSP code by D. R. Hamann
     Using radial grid of 1510 points,  6 beta functions with: 
                l(1) =   0
                l(2) =   0
                l(3) =   1
                l(4) =   1
                l(5) =   2
                l(6) =   2

     Mode symmetry, C_3v (3m)   point group:


     Atomic displacements:
     There are    4 irreducible representations

     Representation     1      1 modes -  To be done

     Representation     2      1 modes -  To be done

     Representation     3      2 modes -  To be done

     Representation     4      2 modes -  To be done



     Alpha used in Ewald sum =   2.8000
     PHONON       :   3m58.49s CPU   4m37.23s WALL



     Representation #   1 mode #   1

     Self-consistent Calculation

      iter #   1 total cpu time :   280.4 secs   av.it.:   6.5
      thresh= 1.000E-02 alpha_mix =  0.700 |ddv_scf|^2 =  8.913E-05

      iter #   2 total cpu time :   287.8 secs   av.it.:   9.7
      thresh= 9.441E-04 alpha_mix =  0.700 |ddv_scf|^2 =  7.113E-04

      iter #   3 total cpu time :   291.1 secs   av.it.:   8.3
      thresh= 2.667E-03 alpha_mix =  0.700 |ddv_scf|^2 =  1.309E-07

      iter #   4 total cpu time :   294.6 secs   av.it.:   9.9
      thresh= 3.619E-05 alpha_mix =  0.700 |ddv_scf|^2 =  2.660E-09

      iter #   5 total cpu time :   297.4 secs   av.it.:   9.9
      thresh= 5.157E-06 alpha_mix =  0.700 |ddv_scf|^2 =  2.819E-11

      iter #   6 total cpu time :   302.9 secs   av.it.:  10.5
      thresh= 5.309E-07 alpha_mix =  0.700 |ddv_scf|^2 =  2.918E-12

      iter #   7 total cpu time :   309.0 secs   av.it.:  10.3
      thresh= 1.708E-07 alpha_mix =  0.700 |ddv_scf|^2 =  2.251E-12

      iter #   8 total cpu time :   311.8 secs   av.it.:   9.4
      thresh= 1.500E-07 alpha_mix =  0.700 |ddv_scf|^2 =  2.239E-12

      iter #   9 total cpu time :   316.5 secs   av.it.:   9.0
      thresh= 1.496E-07 alpha_mix =  0.700 |ddv_scf|^2 =  2.936E-13

      iter #  10 total cpu time :   319.2 secs   av.it.:   9.0
      thresh= 5.418E-08 alpha_mix =  0.700 |ddv_scf|^2 =  1.846E-15

      iter #  11 total cpu time :   322.0 secs   av.it.:   9.7
      thresh= 4.296E-09 alpha_mix =  0.700 |ddv_scf|^2 =  1.714E-16

     End of self-consistent calculation

     Convergence has been achieved 


     Representation #   2 mode #   2

     Self-consistent Calculation

      iter #   1 total cpu time :   325.6 secs   av.it.:   6.5
      thresh= 1.000E-02 alpha_mix =  0.700 |ddv_scf|^2 =  8.913E-05

      iter #   2 total cpu time :   328.4 secs   av.it.:   9.7
      thresh= 9.441E-04 alpha_mix =  0.700 |ddv_scf|^2 =  7.113E-04

      iter #   3 total cpu time :   331.1 secs   av.it.:   8.3
      thresh= 2.667E-03 alpha_mix =  0.700 |ddv_scf|^2 =  1.309E-07

      iter #   4 total cpu time :   337.2 secs   av.it.:   9.9
      thresh= 3.619E-05 alpha_mix =  0.700 |ddv_scf|^2 =  2.660E-09

      iter #   5 total cpu time :   343.2 secs   av.it.:   9.9
      thresh= 5.157E-06 alpha_mix =  0.700 |ddv_scf|^2 =  2.819E-11

      iter #   6 total cpu time :   347.7 secs   av.it.:  10.5
      thresh= 5.309E-07 alpha_mix =  0.700 |ddv_scf|^2 =  2.918E-12

      iter #   7 total cpu time :   350.8 secs   av.it.:  10.3
      thresh= 1.708E-07 alpha_mix =  0.700 |ddv_scf|^2 =  2.252E-12

      iter #   8 total cpu time :   356.7 secs   av.it.:   9.4
      thresh= 1.501E-07 alpha_mix =  0.700 |ddv_scf|^2 =  2.239E-12

      iter #   9 total cpu time :   359.4 secs   av.it.:   9.0
      thresh= 1.496E-07 alpha_mix =  0.700 |ddv_scf|^2 =  2.937E-13

      iter #  10 total cpu time :   366.1 secs   av.it.:   9.0
      thresh= 5.419E-08 alpha_mix =  0.700 |ddv_scf|^2 =  1.847E-15

      iter #  11 total cpu time :   368.9 secs   av.it.:   9.7
      thresh= 4.298E-09 alpha_mix =  0.700 |ddv_scf|^2 =  1.715E-16

     End of self-consistent calculation

     Convergence has been achieved 


     Representation #   3 modes #   3   4

     Self-consistent Calculation

      iter #   1 total cpu time :   373.8 secs   av.it.:   6.1
      thresh= 1.000E-02 alpha_mix =  0.700 |ddv_scf|^2 =  5.001E-08

      iter #   2 total cpu time :   381.9 secs   av.it.:  11.4
      thresh= 2.236E-05 alpha_mix =  0.700 |ddv_scf|^2 =  3.465E-09

      iter #   3 total cpu time :   389.5 secs   av.it.:  11.2
      thresh= 5.886E-06 alpha_mix =  0.700 |ddv_scf|^2 =  5.016E-11

      iter #   4 total cpu time :   397.3 secs   av.it.:  11.4
      thresh= 7.082E-07 alpha_mix =  0.700 |ddv_scf|^2 =  5.031E-13

      iter #   5 total cpu time :   404.3 secs   av.it.:  11.4
      thresh= 7.093E-08 alpha_mix =  0.700 |ddv_scf|^2 =  9.793E-15

      iter #   6 total cpu time :   412.2 secs   av.it.:  11.6
      thresh= 9.896E-09 alpha_mix =  0.700 |ddv_scf|^2 =  6.671E-17

     End of self-consistent calculation

     Convergence has been achieved 


     Representation #   4 modes #   5   6

     Self-consistent Calculation

      iter #   1 total cpu time :   417.7 secs   av.it.:   6.0
      thresh= 1.000E-02 alpha_mix =  0.700 |ddv_scf|^2 =  5.002E-08

      iter #   2 total cpu time :   424.2 secs   av.it.:  11.4
      thresh= 2.237E-05 alpha_mix =  0.700 |ddv_scf|^2 =  3.468E-09

      iter #   3 total cpu time :   434.0 secs   av.it.:  11.2
      thresh= 5.889E-06 alpha_mix =  0.700 |ddv_scf|^2 =  5.014E-11

      iter #   4 total cpu time :   440.5 secs   av.it.:  11.3
      thresh= 7.081E-07 alpha_mix =  0.700 |ddv_scf|^2 =  5.031E-13

      iter #   5 total cpu time :   448.7 secs   av.it.:  11.4
      thresh= 7.093E-08 alpha_mix =  0.700 |ddv_scf|^2 =  9.785E-15

      iter #   6 total cpu time :   455.2 secs   av.it.:  11.5
      thresh= 9.892E-09 alpha_mix =  0.700 |ddv_scf|^2 =  6.663E-17

     End of self-consistent calculation

     Convergence has been achieved 
 
     Number of q in the star =    8
     List of q in the star:
          1  -0.333333333   0.333333333  -0.333333333
          2   0.333333333   0.333333333   0.333333333
          3  -0.333333333  -0.333333333  -0.333333333
          4   0.333333333  -0.333333333   0.333333333
          5   0.333333333  -0.333333333  -0.333333333
          6   0.333333333   0.333333333  -0.333333333
          7  -0.333333333  -0.333333333   0.333333333
          8  -0.333333333   0.333333333   0.333333333

     Diagonalizing the dynamical matrix

     q = (   -0.333333333   0.333333333  -0.333333333 ) 

 **************************************************************************
     freq (    1) =       3.044145 [THz] =     101.541763 [cm-1]
     freq (    2) =       3.044145 [THz] =     101.541763 [cm-1]
     freq (    3) =       8.747658 [THz] =     291.790465 [cm-1]
     freq (    4) =      13.857004 [THz] =     462.219910 [cm-1]
     freq (    5) =      14.763308 [THz] =     492.450963 [cm-1]
     freq (    6) =      14.763308 [THz] =     492.450963 [cm-1]
 **************************************************************************

     Mode symmetry, C_3v (3m)   point group:

     freq (   1-   2) =        101.5  [cm-1]   --> E    L_3           
     freq (   3-   3) =        291.8  [cm-1]   --> A_1  L_1           
     freq (   4-   4) =        462.2  [cm-1]   --> A_1  L_1           
     freq (   5-   6) =        492.5  [cm-1]   --> E    L_3           

     Calculation of q =    0.5000000  -0.5000000   0.5000000
 
     Parallelization info
     --------------------
     sticks:   dense  smooth     PW     G-vecs:    dense   smooth      PW
     Min         167     167     55                 3478     3478     668
     Max         168     168     57                 3481     3481     670
     Sum        1003    1003    337                20875    20875    4015
 
     Using Slab Decomposition
 

     Title: 
     default                                                                    


     bravais-lattice index     =            2
     lattice parameter (alat)  =      10.1899  a.u.
     unit-cell volume          =     264.5151 (a.u.)^3
     number of atoms/cell      =            2
     number of atomic types    =            1
     number of electrons       =         8.00
     number of Kohn-Sham states=            4
     kinetic-energy cutoff     =      70.0000  Ry
     charge density cutoff     =     280.0000  Ry
     Exchange-correlation= PW
                           (   1   4   0   0   0   0   0)

     celldm(1)=  10.189905  celldm(2)=   0.000000  celldm(3)=   0.000000
     celldm(4)=   0.000000  celldm(5)=   0.000000  celldm(6)=   0.000000

     crystal axes: (cart. coord. in units of alat)
               a(1) = (  -0.500000   0.000000   0.500000 )  
               a(2) = (   0.000000   0.500000   0.500000 )  
               a(3) = (  -0.500000   0.500000   0.000000 )  

     reciprocal axes: (cart. coord. in units 2 pi/alat)
               b(1) = ( -1.000000 -1.000000  1.000000 )  
               b(2) = (  1.000000  1.000000  1.000000 )  
               b(3) = ( -1.000000  1.000000 -1.000000 )  


     PseudoPot. # 1 for Si read from file:
     ./pseudos/Si.nc.UPF
     MD5 check sum: 9e2d726316af3d4752eea8ab0afbb951
     Pseudo is Norm-conserving + core correction, Zval =  4.0
     Generated using ONCVPSP code by D. R. Hamann
     Using radial grid of 1510 points,  6 beta functions with: 
                l(1) =   0
                l(2) =   0
                l(3) =   1
                l(4) =   1
                l(5) =   2
                l(6) =   2

     atomic species   valence    mass     pseudopotential
        Si             4.00    28.08550     Si( 1.00)

     48 Sym. Ops., with inversion, found



   Cartesian axes

     site n.     atom                  positions (alat units)
         1           Si  tau(   1) = (   0.0000000   0.0000000   0.0000000  )
         2           Si  tau(   2) = (  -0.2500000   0.2500000   0.2500000  )

     number of k points=   182

     Number of k-points >= 100: set verbosity='high' to print them.

     Dense  grid:    20875 G-vectors     FFT dimensions: (  40,  40,  40)

     Estimated max dynamical RAM per process >       3.10 MB

     Estimated total dynamical RAM >      18.60 MB

     The potential is recalculated from file :
     /fastscratch/tsievers/QE_TMP_DIR/_ph0/si_ph_bench_poolsize_2_n_procs_48_0.save/charge-density

     Starting wfcs are    8 atomic wfcs

     Band Structure Calculation
     Davidson diagonalization with overlap

     ethr =  1.25E-10,  avg # of iterations = 12.9

     total cpu time spent up to now is       58.7 secs

     End of band structure calculation

     Number of k-points >= 100: set verbosity='high' to print the bands.

     highest occupied level (ev):     6.1106

     Writing config to output data dir /fastscratch/tsievers/QE_TMP_DIR/_ph0/si_ph_bench_poolsize_2_n_procs_48_0.save/

     default                                                                    

     bravais-lattice index     =            2
     lattice parameter (alat)  =      10.1899  a.u.
     unit-cell volume          =     264.5151 (a.u.)^3
     number of atoms/cell      =            2
     number of atomic types    =            1
     kinetic-energy cut-off    =      70.0000  Ry
     charge density cut-off    =     280.0000  Ry
     convergence threshold     =      1.0E-15
     beta                      =       0.7000
     number of iterations used =            4
     Exchange-correlation= PW
                           (   1   4   0   0   0   0   0)


     celldm(1)=   10.18990  celldm(2)=    0.00000  celldm(3)=    0.00000
     celldm(4)=    0.00000  celldm(5)=    0.00000  celldm(6)=    0.00000

     crystal axes: (cart. coord. in units of alat)
               a(1) = ( -0.5000  0.0000  0.5000 )  
               a(2) = (  0.0000  0.5000  0.5000 )  
               a(3) = ( -0.5000  0.5000  0.0000 )  

     reciprocal axes: (cart. coord. in units 2 pi/alat)
               b(1) = ( -1.0000 -1.0000  1.0000 )  
               b(2) = (  1.0000  1.0000  1.0000 )  
               b(3) = ( -1.0000  1.0000 -1.0000 )  


     Atoms inside the unit cell: 

     Cartesian axes

     site n.  atom      mass           positions (alat units)
        1     Si  28.0855   tau(    1) = (    0.00000    0.00000    0.00000  )
        2     Si  28.0855   tau(    2) = (   -0.25000    0.25000    0.25000  )

     Computing dynamical matrix for 
                    q = (   0.5000000  -0.5000000   0.5000000 )
 
     13 Sym.Ops. (with q -> -q+G )


     G cutoff =  736.4420  (   3480 G-vectors)     FFT grid: ( 40, 40, 40)
     number of k points=   182

     PseudoPot. # 1 for Si read from file:
     ./pseudos/Si.nc.UPF
     MD5 check sum: 9e2d726316af3d4752eea8ab0afbb951
     Pseudo is Norm-conserving + core correction, Zval =  4.0
     Generated using ONCVPSP code by D. R. Hamann
     Using radial grid of 1510 points,  6 beta functions with: 
                l(1) =   0
                l(2) =   0
                l(3) =   1
                l(4) =   1
                l(5) =   2
                l(6) =   2


     Atomic displacements:
     There are    4 irreducible representations

     Representation     1      1 modes -  To be done

     Representation     2      1 modes -  To be done

     Representation     3      2 modes -  To be done

     Representation     4      2 modes -  To be done



     Alpha used in Ewald sum =   2.8000
     PHONON       :   6m20.89s CPU   7m44.57s WALL



     Representation #   1 mode #   1

     Self-consistent Calculation

      iter #   1 total cpu time :   465.6 secs   av.it.:   5.8
      thresh= 1.000E-02 alpha_mix =  0.700 |ddv_scf|^2 =  2.851E-06

      iter #   2 total cpu time :   467.2 secs   av.it.:   9.9
      thresh= 1.689E-04 alpha_mix =  0.700 |ddv_scf|^2 =  2.630E-06

      iter #   3 total cpu time :   468.6 secs   av.it.:   9.3
      thresh= 1.622E-04 alpha_mix =  0.700 |ddv_scf|^2 =  3.510E-10

      iter #   4 total cpu time :   470.0 secs   av.it.:  10.1
      thresh= 1.874E-06 alpha_mix =  0.700 |ddv_scf|^2 =  6.020E-12

      iter #   5 total cpu time :   471.9 secs   av.it.:   9.8
      thresh= 2.453E-07 alpha_mix =  0.700 |ddv_scf|^2 =  8.676E-14

      iter #   6 total cpu time :   474.4 secs   av.it.:   9.8
      thresh= 2.946E-08 alpha_mix =  0.700 |ddv_scf|^2 =  1.139E-15

      iter #   7 total cpu time :   476.0 secs   av.it.:   9.8
      thresh= 3.375E-09 alpha_mix =  0.700 |ddv_scf|^2 =  3.900E-18

     End of self-consistent calculation

     Convergence has been achieved 


     Representation #   2 mode #   2

     Self-consistent Calculation

      iter #   1 total cpu time :   477.7 secs   av.it.:   6.7
      thresh= 1.000E-02 alpha_mix =  0.700 |ddv_scf|^2 =  4.356E-05

      iter #   2 total cpu time :   479.4 secs   av.it.:  10.0
      thresh= 6.600E-04 alpha_mix =  0.700 |ddv_scf|^2 =  1.423E-04

      iter #   3 total cpu time :   480.8 secs   av.it.:   9.1
      thresh= 1.193E-03 alpha_mix =  0.700 |ddv_scf|^2 =  8.429E-09

      iter #   4 total cpu time :   482.3 secs   av.it.:   9.8
      thresh= 9.181E-06 alpha_mix =  0.700 |ddv_scf|^2 =  1.767E-10

      iter #   5 total cpu time :   484.0 secs   av.it.:  10.3
      thresh= 1.329E-06 alpha_mix =  0.700 |ddv_scf|^2 =  8.749E-12

      iter #   6 total cpu time :   487.6 secs   av.it.:  10.1
      thresh= 2.958E-07 alpha_mix =  0.700 |ddv_scf|^2 =  2.428E-13

      iter #   7 total cpu time :   490.0 secs   av.it.:   9.4
      thresh= 4.928E-08 alpha_mix =  0.700 |ddv_scf|^2 =  6.397E-17

     End of self-consistent calculation

     Convergence has been achieved 


     Representation #   3 modes #   3   4

     Self-consistent Calculation

      iter #   1 total cpu time :   496.4 secs   av.it.:   6.1
      thresh= 1.000E-02 alpha_mix =  0.700 |ddv_scf|^2 =  1.007E-07

      iter #   2 total cpu time :   502.2 secs   av.it.:  11.3
      thresh= 3.173E-05 alpha_mix =  0.700 |ddv_scf|^2 =  8.533E-09

      iter #   3 total cpu time :   507.9 secs   av.it.:  11.2
      thresh= 9.238E-06 alpha_mix =  0.700 |ddv_scf|^2 =  5.713E-11

      iter #   4 total cpu time :   512.9 secs   av.it.:  11.2
      thresh= 7.559E-07 alpha_mix =  0.700 |ddv_scf|^2 =  6.386E-14

      iter #   5 total cpu time :   516.1 secs   av.it.:  11.4
      thresh= 2.527E-08 alpha_mix =  0.700 |ddv_scf|^2 =  8.419E-16

     End of self-consistent calculation

     Convergence has been achieved 


     Representation #   4 modes #   5   6

     Self-consistent Calculation

      iter #   1 total cpu time :   520.9 secs   av.it.:   5.5
      thresh= 1.000E-02 alpha_mix =  0.700 |ddv_scf|^2 =  1.142E-08

      iter #   2 total cpu time :   524.7 secs   av.it.:  11.2
      thresh= 1.069E-05 alpha_mix =  0.700 |ddv_scf|^2 =  2.995E-10

      iter #   3 total cpu time :   530.6 secs   av.it.:  11.2
      thresh= 1.731E-06 alpha_mix =  0.700 |ddv_scf|^2 =  1.842E-11

      iter #   4 total cpu time :   534.8 secs   av.it.:  11.3
      thresh= 4.291E-07 alpha_mix =  0.700 |ddv_scf|^2 =  7.876E-14

      iter #   5 total cpu time :   538.0 secs   av.it.:  11.2
      thresh= 2.806E-08 alpha_mix =  0.700 |ddv_scf|^2 =  1.259E-15

      iter #   6 total cpu time :   541.4 secs   av.it.:  11.3
      thresh= 3.548E-09 alpha_mix =  0.700 |ddv_scf|^2 =  2.658E-18

     End of self-consistent calculation

     Convergence has been achieved 
 
     Number of q in the star =    4
     List of q in the star:
          1   0.500000000  -0.500000000   0.500000000
          2   0.500000000   0.500000000   0.500000000
          3  -0.500000000   0.500000000   0.500000000
          4   0.500000000   0.500000000  -0.500000000

     Diagonalizing the dynamical matrix

     q = (    0.500000000  -0.500000000   0.500000000 ) 

 **************************************************************************
     freq (    1) =       3.158365 [THz] =     105.351723 [cm-1]
     freq (    2) =       3.158365 [THz] =     105.351723 [cm-1]
     freq (    3) =      11.168993 [THz] =     372.557496 [cm-1]
     freq (    4) =      12.390709 [THz] =     413.309551 [cm-1]
     freq (    5) =      14.704273 [THz] =     490.481745 [cm-1]
     freq (    6) =      14.704273 [THz] =     490.481745 [cm-1]
 **************************************************************************

     Calculation of q =    0.0000000   0.3333333   0.0000000
 
     Parallelization info
     --------------------
     sticks:   dense  smooth     PW     G-vecs:    dense   smooth      PW
     Min         167     167     52                 3478     3478     619
     Max         168     168     53                 3481     3481     622
     Sum        1003    1003    313                20875    20875    3719
 
     Using Slab Decomposition
 

     Title: 
     default                                                                    


     bravais-lattice index     =            2
     lattice parameter (alat)  =      10.1899  a.u.
     unit-cell volume          =     264.5151 (a.u.)^3
     number of atoms/cell      =            2
     number of atomic types    =            1
     number of electrons       =         8.00
     number of Kohn-Sham states=            4
     kinetic-energy cutoff     =      70.0000  Ry
     charge density cutoff     =     280.0000  Ry
     Exchange-correlation= PW
                           (   1   4   0   0   0   0   0)

     celldm(1)=  10.189905  celldm(2)=   0.000000  celldm(3)=   0.000000
     celldm(4)=   0.000000  celldm(5)=   0.000000  celldm(6)=   0.000000

     crystal axes: (cart. coord. in units of alat)
               a(1) = (  -0.500000   0.000000   0.500000 )  
               a(2) = (   0.000000   0.500000   0.500000 )  
               a(3) = (  -0.500000   0.500000   0.000000 )  

     reciprocal axes: (cart. coord. in units 2 pi/alat)
               b(1) = ( -1.000000 -1.000000  1.000000 )  
               b(2) = (  1.000000  1.000000  1.000000 )  
               b(3) = ( -1.000000  1.000000 -1.000000 )  


     PseudoPot. # 1 for Si read from file:
     ./pseudos/Si.nc.UPF
     MD5 check sum: 9e2d726316af3d4752eea8ab0afbb951
     Pseudo is Norm-conserving + core correction, Zval =  4.0
     Generated using ONCVPSP code by D. R. Hamann
     Using radial grid of 1510 points,  6 beta functions with: 
                l(1) =   0
                l(2) =   0
                l(3) =   1
                l(4) =   1
                l(5) =   2
                l(6) =   2

     atomic species   valence    mass     pseudopotential
        Si             4.00    28.08550     Si( 1.00)

     48 Sym. Ops., with inversion, found



   Cartesian axes

     site n.     atom                  positions (alat units)
         1           Si  tau(   1) = (   0.0000000   0.0000000   0.0000000  )
         2           Si  tau(   2) = (  -0.2500000   0.2500000   0.2500000  )

     number of k points=   252

     Number of k-points >= 100: set verbosity='high' to print them.

     Dense  grid:    20875 G-vectors     FFT dimensions: (  40,  40,  40)

     Estimated max dynamical RAM per process >       3.07 MB

     Estimated total dynamical RAM >      18.44 MB

     The potential is recalculated from file :
     /fastscratch/tsievers/QE_TMP_DIR/_ph0/si_ph_bench_poolsize_2_n_procs_48_0.save/charge-density

     Starting wfcs are    8 atomic wfcs

     Band Structure Calculation
     Davidson diagonalization with overlap

     ethr =  1.25E-10,  avg # of iterations = 12.8

     total cpu time spent up to now is       67.0 secs

     End of band structure calculation

     Number of k-points >= 100: set verbosity='high' to print the bands.

     highest occupied level (ev):     6.1106

     Writing config to output data dir /fastscratch/tsievers/QE_TMP_DIR/_ph0/si_ph_bench_poolsize_2_n_procs_48_0.save/

     default                                                                    

     bravais-lattice index     =            2
     lattice parameter (alat)  =      10.1899  a.u.
     unit-cell volume          =     264.5151 (a.u.)^3
     number of atoms/cell      =            2
     number of atomic types    =            1
     kinetic-energy cut-off    =      70.0000  Ry
     charge density cut-off    =     280.0000  Ry
     convergence threshold     =      1.0E-15
     beta                      =       0.7000
     number of iterations used =            4
     Exchange-correlation= PW
                           (   1   4   0   0   0   0   0)


     celldm(1)=   10.18990  celldm(2)=    0.00000  celldm(3)=    0.00000
     celldm(4)=    0.00000  celldm(5)=    0.00000  celldm(6)=    0.00000

     crystal axes: (cart. coord. in units of alat)
               a(1) = ( -0.5000  0.0000  0.5000 )  
               a(2) = (  0.0000  0.5000  0.5000 )  
               a(3) = ( -0.5000  0.5000  0.0000 )  

     reciprocal axes: (cart. coord. in units 2 pi/alat)
               b(1) = ( -1.0000 -1.0000  1.0000 )  
               b(2) = (  1.0000  1.0000  1.0000 )  
               b(3) = ( -1.0000  1.0000 -1.0000 )  


     Atoms inside the unit cell: 

     Cartesian axes

     site n.  atom      mass           positions (alat units)
        1     Si  28.0855   tau(    1) = (    0.00000    0.00000    0.00000  )
        2     Si  28.0855   tau(    2) = (   -0.25000    0.25000    0.25000  )

     Computing dynamical matrix for 
                    q = (   0.0000000   0.3333333   0.0000000 )
 
      8 Sym.Ops. (no q -> -q+G )


     G cutoff =  736.4420  (   3479 G-vectors)     FFT grid: ( 40, 40, 40)
     number of k points=   252

     PseudoPot. # 1 for Si read from file:
     ./pseudos/Si.nc.UPF
     MD5 check sum: 9e2d726316af3d4752eea8ab0afbb951
     Pseudo is Norm-conserving + core correction, Zval =  4.0
     Generated using ONCVPSP code by D. R. Hamann
     Using radial grid of 1510 points,  6 beta functions with: 
                l(1) =   0
                l(2) =   0
                l(3) =   1
                l(4) =   1
                l(5) =   2
                l(6) =   2

     Mode symmetry, C_4v (4mm)  point group:


     Atomic displacements:
     There are    4 irreducible representations

     Representation     1      1 modes -  To be done

     Representation     2      1 modes -  To be done

     Representation     3      2 modes -  To be done

     Representation     4      2 modes -  To be done



     Alpha used in Ewald sum =   2.8000
     PHONON       :   7m31.27s CPU   9m14.82s WALL



     Representation #   1 mode #   1

     Self-consistent Calculation

      iter #   1 total cpu time :   556.5 secs   av.it.:   6.8
      thresh= 1.000E-02 alpha_mix =  0.700 |ddv_scf|^2 =  1.891E-03

      iter #   2 total cpu time :   560.2 secs   av.it.:   9.1
      thresh= 4.348E-03 alpha_mix =  0.700 |ddv_scf|^2 =  5.765E-02

      iter #   3 total cpu time :   562.0 secs   av.it.:   8.0
      thresh= 1.000E-02 alpha_mix =  0.700 |ddv_scf|^2 =  5.301E-08

      iter #   4 total cpu time :   564.2 secs   av.it.:   9.0
      thresh= 2.302E-05 alpha_mix =  0.700 |ddv_scf|^2 =  2.536E-09

      iter #   5 total cpu time :   566.4 secs   av.it.:   8.6
      thresh= 5.036E-06 alpha_mix =  0.700 |ddv_scf|^2 =  8.219E-10

      iter #   6 total cpu time :   568.1 secs   av.it.:   8.2
      thresh= 2.867E-06 alpha_mix =  0.700 |ddv_scf|^2 =  1.127E-12

      iter #   7 total cpu time :   570.7 secs   av.it.:   8.5
      thresh= 1.062E-07 alpha_mix =  0.700 |ddv_scf|^2 =  2.477E-14

      iter #   8 total cpu time :   572.4 secs   av.it.:   8.4
      thresh= 1.574E-08 alpha_mix =  0.700 |ddv_scf|^2 =  3.249E-16

     End of self-consistent calculation

     Convergence has been achieved 


     Representation #   2 mode #   2

     Self-consistent Calculation

      iter #   1 total cpu time :   576.6 secs   av.it.:   5.9
      thresh= 1.000E-02 alpha_mix =  0.700 |ddv_scf|^2 =  2.886E-07

      iter #   2 total cpu time :   582.5 secs   av.it.:  10.5
      thresh= 5.372E-05 alpha_mix =  0.700 |ddv_scf|^2 =  4.667E-08

      iter #   3 total cpu time :   585.0 secs   av.it.:  10.2
      thresh= 2.160E-05 alpha_mix =  0.700 |ddv_scf|^2 =  5.903E-10

      iter #   4 total cpu time :   587.1 secs   av.it.:  10.4
      thresh= 2.430E-06 alpha_mix =  0.700 |ddv_scf|^2 =  2.452E-11

      iter #   5 total cpu time :   589.2 secs   av.it.:  10.4
      thresh= 4.952E-07 alpha_mix =  0.700 |ddv_scf|^2 =  5.586E-14

      iter #   6 total cpu time :   591.6 secs   av.it.:  10.5
      thresh= 2.364E-08 alpha_mix =  0.700 |ddv_scf|^2 =  1.116E-15

      iter #   7 total cpu time :   593.6 secs   av.it.:  10.5
      thresh= 3.340E-09 alpha_mix =  0.700 |ddv_scf|^2 =  2.606E-17

     End of self-consistent calculation

     Convergence has been achieved 


     Representation #   3 modes #   3   4

     Self-consistent Calculation

      iter #   1 total cpu time :   597.6 secs   av.it.:   6.1
      thresh= 1.000E-02 alpha_mix =  0.700 |ddv_scf|^2 =  5.223E-08

      iter #   2 total cpu time :   602.0 secs   av.it.:  11.4
      thresh= 2.285E-05 alpha_mix =  0.700 |ddv_scf|^2 =  4.763E-09

      iter #   3 total cpu time :   606.3 secs   av.it.:  11.1
      thresh= 6.901E-06 alpha_mix =  0.700 |ddv_scf|^2 =  5.549E-11

      iter #   4 total cpu time :   611.2 secs   av.it.:  11.3
      thresh= 7.449E-07 alpha_mix =  0.700 |ddv_scf|^2 =  6.241E-13

      iter #   5 total cpu time :   617.3 secs   av.it.:  11.2
      thresh= 7.900E-08 alpha_mix =  0.700 |ddv_scf|^2 =  1.036E-14

      iter #   6 total cpu time :   622.5 secs   av.it.:  11.6
      thresh= 1.018E-08 alpha_mix =  0.700 |ddv_scf|^2 =  4.217E-17

     End of self-consistent calculation

     Convergence has been achieved 


     Representation #   4 modes #   5   6

     Self-consistent Calculation

      iter #   1 total cpu time :   626.4 secs   av.it.:   6.0
      thresh= 1.000E-02 alpha_mix =  0.700 |ddv_scf|^2 =  6.887E-08

      iter #   2 total cpu time :   630.7 secs   av.it.:  11.3
      thresh= 2.624E-05 alpha_mix =  0.700 |ddv_scf|^2 =  6.494E-09

      iter #   3 total cpu time :   634.9 secs   av.it.:  11.0
      thresh= 8.058E-06 alpha_mix =  0.700 |ddv_scf|^2 =  5.875E-11

      iter #   4 total cpu time :   639.2 secs   av.it.:  11.3
      thresh= 7.665E-07 alpha_mix =  0.700 |ddv_scf|^2 =  3.993E-13

      iter #   5 total cpu time :   647.4 secs   av.it.:  11.1
      thresh= 6.319E-08 alpha_mix =  0.700 |ddv_scf|^2 =  9.483E-15

      iter #   6 total cpu time :   653.4 secs   av.it.:  11.6
      thresh= 9.738E-09 alpha_mix =  0.700 |ddv_scf|^2 =  4.015E-17

     End of self-consistent calculation

     Convergence has been achieved 
 
     Number of q in the star =    6
     List of q in the star:
          1   0.000000000   0.333333333   0.000000000
          2   0.333333333   0.000000000   0.000000000
          3   0.000000000   0.000000000   0.333333333
          4   0.000000000  -0.333333333   0.000000000
          5  -0.333333333   0.000000000   0.000000000
          6   0.000000000   0.000000000  -0.333333333

     Diagonalizing the dynamical matrix

     q = (    0.000000000   0.333333333   0.000000000 ) 

 **************************************************************************
     freq (    1) =       2.948496 [THz] =      98.351225 [cm-1]
     freq (    2) =       2.948496 [THz] =      98.351225 [cm-1]
     freq (    3) =       4.953347 [THz] =     165.225871 [cm-1]
     freq (    4) =      14.670286 [THz] =     489.348079 [cm-1]
     freq (    5) =      14.670286 [THz] =     489.348079 [cm-1]
     freq (    6) =      15.143133 [THz] =     505.120553 [cm-1]
 **************************************************************************

     Mode symmetry, C_4v (4mm)  point group:

     freq (   1-   2) =         98.4  [cm-1]   --> E    G_5 D_5       
     freq (   3-   3) =        165.2  [cm-1]   --> A_1  G_1 D_1       
     freq (   4-   5) =        489.3  [cm-1]   --> E    G_5 D_5       
     freq (   6-   6) =        505.1  [cm-1]   --> B_2  G_4 D_2'      
 
     init_run     :      0.14s CPU      0.45s WALL (       4 calls)
     electrons    :     63.38s CPU     64.31s WALL (       4 calls)

     Called by init_run:
     wfcinit      :      0.00s CPU      0.16s WALL (       4 calls)
     potinit      :      0.01s CPU      0.15s WALL (       4 calls)
     hinit0       :      0.05s CPU      0.05s WALL (       4 calls)

     Called by electrons:
     c_bands      :     63.38s CPU     64.31s WALL (       4 calls)
     v_of_rho     :      0.00s CPU      0.01s WALL (       5 calls)

     Called by c_bands:
     init_us_2    :      3.73s CPU      3.89s WALL (   25781 calls)
     init_us_2:cp :      3.66s CPU      3.83s WALL (   25781 calls)
     cegterg      :     29.00s CPU     29.75s WALL (    1162 calls)

     Called by *egterg:
     cdiaghg      :      9.84s CPU     10.10s WALL (   16118 calls)
     h_psi        :    299.51s CPU    309.94s WALL (  316701 calls)
     g_psi        :      0.17s CPU      0.18s WALL (   14956 calls)

     Called by h_psi:
     h_psi:calbec :     22.72s CPU     23.51s WALL (  316701 calls)
     vloc_psi     :    256.69s CPU    265.64s WALL (  316701 calls)
     add_vuspsi   :     16.98s CPU     17.72s WALL (  316701 calls)

     General routines
     calbec       :     40.57s CPU     42.23s WALL (  636912 calls)
     fft          :      0.28s CPU      0.30s WALL (    1409 calls)
     ffts         :      0.95s CPU      0.97s WALL (    3930 calls)
     fftw         :    279.01s CPU    288.82s WALL ( 2697400 calls)
     davcio       :      1.82s CPU     19.59s WALL (  126785 calls)
 
     Parallel routines
 
     PHONON       :   8m48.50s CPU  10m53.79s WALL

     INITIALIZATION: 
     phq_setup    :      0.02s CPU      0.18s WALL (       5 calls)
     phq_init     :      1.53s CPU      4.57s WALL (       5 calls)
 
     phq_init     :      1.53s CPU      4.57s WALL (       5 calls)
     set_drhoc    :      0.46s CPU      0.47s WALL (      15 calls)
     init_vloc    :      0.01s CPU      0.01s WALL (       5 calls)
     init_us_1    :      0.02s CPU      0.02s WALL (       5 calls)
     init_us_2    :      3.73s CPU      3.89s WALL (   25781 calls)
 
     DYNAMICAL MATRIX:
     dynmat0      :      0.92s CPU      3.93s WALL (       5 calls)
     phqscf       :    451.79s CPU    561.63s WALL (       5 calls)
     dynmatrix    :      0.22s CPU      0.43s WALL (       5 calls)
 
     phqscf       :    451.79s CPU    561.63s WALL (       5 calls)
     solve_linter :    450.27s CPU    553.74s WALL (      18 calls)
     drhodv       :      1.49s CPU      1.58s WALL (      18 calls)
 
     dynmat0      :      0.92s CPU      3.93s WALL (       5 calls)
     dynmat_us    :      0.58s CPU      0.58s WALL (       5 calls)
     d2ionq       :      0.00s CPU      0.00s WALL (       5 calls)
     dynmatcc     :      0.33s CPU      0.33s WALL (       5 calls)
 
     dynmat_us    :      0.58s CPU      0.58s WALL (       5 calls)
 
     phqscf       :    451.79s CPU    561.63s WALL (       5 calls)
     solve_linter :    450.27s CPU    553.74s WALL (      18 calls)
 
     solve_linter :    450.27s CPU    553.74s WALL (      18 calls)
     dvqpsi_us    :      5.77s CPU      5.95s WALL (    3822 calls)
     sth_kernel   :    379.69s CPU    409.14s WALL (     135 calls)
     apply_dpot_b :     21.92s CPU     22.90s WALL (   22456 calls)
     ortho        :      1.13s CPU      1.18s WALL (   26278 calls)
     cgsolve      :    321.65s CPU    333.03s WALL (   26278 calls)
     incdrhoscf   :     31.99s CPU     33.00s WALL (   26194 calls)
     dv_of_drho   :      0.13s CPU      0.13s WALL (     212 calls)
     mix_pot      :      1.07s CPU     42.86s WALL (     135 calls)
     psymdvscf    :      4.16s CPU      4.20s WALL (     130 calls)
 
     dvqpsi_us    :      5.77s CPU      5.95s WALL (    3822 calls)
     dvqpsi_us_on :      1.00s CPU      1.03s WALL (    3822 calls)
 
     cgsolve      :    321.65s CPU    333.03s WALL (   26278 calls)
     ch_psi       :    314.54s CPU    325.54s WALL (  299421 calls)
 
     ch_psi       :    314.54s CPU    325.54s WALL (  299421 calls)
     h_psi        :    299.51s CPU    309.94s WALL (  316701 calls)
     last         :     28.59s CPU     29.61s WALL (  299421 calls)
 
     h_psi        :    299.51s CPU    309.94s WALL (  316701 calls)
     add_vuspsi   :     16.98s CPU     17.72s WALL (  316701 calls)
 
     incdrhoscf   :     31.99s CPU     33.00s WALL (   26194 calls)
 
 
      General routines
     calbec       :     40.57s CPU     42.23s WALL (  636912 calls)
     fft          :      0.28s CPU      0.30s WALL (    1409 calls)
     ffts         :      0.95s CPU      0.97s WALL (    3930 calls)
     fftw         :    279.01s CPU    288.82s WALL ( 2697400 calls)
     davcio       :      1.82s CPU     19.59s WALL (  126785 calls)
     write_rec    :      0.12s CPU     39.54s WALL (     153 calls)
 
 
     PHONON       :   8m48.50s CPU  10m53.79s WALL

 
   This run was terminated on:  13:41:55  19May2022            

=------------------------------------------------------------------------------=
   JOB DONE.
=------------------------------------------------------------------------------=
real 783.01
user 13455.07
sys 328.78
