
     Program PHONON v.7.0 starts on 30May2022 at 16:26:22 

     This program is part of the open-source Quantum ESPRESSO suite
     for quantum simulation of materials; please cite
         "P. Giannozzi et al., J. Phys.:Condens. Matter 21 395502 (2009);
         "P. Giannozzi et al., J. Phys.:Condens. Matter 29 465901 (2017);
         "P. Giannozzi et al., J. Chem. Phys. 152 154105 (2020);
          URL http://www.quantum-espresso.org", 
     in publications or presentations arising from this work. More details at
     http://www.quantum-espresso.org/quote

     Parallel version (MPI), running on   144 processors

     MPI processes distributed on     8 nodes
     path-images division:  nimage    =       8
     R & G space division:  proc/nbgrp/npool/nimage =      18
     59962 MiB available memory on the printing compute node when the environment starts
 

     Reading xml data from directory:

     /fastscratch/tsievers/TaS2_24_phonons/TaS2_phonons.save/

     IMPORTANT: XC functional enforced from input :
     Exchange-correlation= PBE
                           (   1   4   3   4   0   0   0)
     Any further DFT definition will be discarded
     Please, verify this is what you really want

 
     Parallelization info
     --------------------
     sticks:   dense  smooth     PW     G-vecs:    dense   smooth      PW
     Min          60      31      9                 7329     2593     419
     Max          62      32     10                 7342     2605     434
     Sum        1099     559    163               132031    46753    7647
 
     Using Slab Decomposition
 
 ----2D----2D----2D----2D----2D----2D----2D----2D----2D----2D----2D----2D
  The code is running with the 2D cutoff
  Please refer to:
  Sohier, T., Calandra, M., & Mauri, F. (2017), 
  Density functional perturbation theory for gated two-dimensional heterostructu
 res:
  Theoretical developments and application to flexural phonons in graphene.
  Physical Review B, 96(7), 75448. https://doi.org/10.1103/PhysRevB.96.075448
 ----2D----2D----2D----2D----2D----2D----2D----2D----2D----2D----2D----2D
     Reading collected, re-writing distributed wavefunctions


     Dynamical matrices for (12,12, 1)  uniform grid of q-points
     (  19 q-points):
       N         xq(1)         xq(2)         xq(3) 
       1   0.000000000   0.000000000   0.000000000
       2   0.000000000   0.096225045   0.000000000
       3   0.000000000   0.192450090   0.000000000
       4   0.000000000   0.288675135   0.000000000
       5   0.000000000   0.384900179   0.000000000
       6   0.000000000   0.481125224   0.000000000
       7   0.000000000  -0.577350269   0.000000000
       8   0.083333333   0.144337567   0.000000000
       9   0.083333333   0.240562612   0.000000000
      10   0.083333333   0.336787657   0.000000000
      11   0.083333333   0.433012702   0.000000000
      12   0.083333333   0.529237747   0.000000000
      13   0.166666667   0.288675135   0.000000000
      14   0.166666667   0.384900179   0.000000000
      15   0.166666667   0.481125224   0.000000000
      16   0.166666667   0.577350269   0.000000000
      17   0.250000000   0.433012702   0.000000000
      18   0.250000000   0.529237747   0.000000000
      19   0.333333333   0.577350269   0.000000000

     Saving dvscf to file. Distribute only q points, not irreducible represetations.

      Image parallelization. There are  8 images and     8 representations
      The estimated total work is   870 self-consistent (scf) runs
      I am image number     2 and my work is about  120 scf runs. I calculate: 
      q point number     8, representations:
       0 1 2 3 4 5 6 7 8 9
      q point number     9, representations:
       0 1 2 3 4 5 6 7 8 9

     Calculation of q =    0.0833333   0.1443376   0.0000000

     Subspace diagonalization in iterative solution of the eigenvalue problem:
     one sub-group per band group will be used
     scalapack distributed-memory algorithm (size of sub-group:  4*  4 procs)

 
     Parallelization info
     --------------------
     sticks:   dense  smooth     PW     G-vecs:    dense   smooth      PW
     Min          60      31      9                 7329     2593     441
     Max          62      32     10                 7342     2605     462
     Sum        1099     559    163               132031    46753    8045
 
     Using Slab Decomposition
 

     Title: 
     TaS2                                                                       


     bravais-lattice index     =            4
     lattice parameter (alat)  =       6.3117  a.u.
     unit-cell volume          =     977.9382 (a.u.)^3
     number of atoms/cell      =            3
     number of atomic types    =            2
     number of electrons       =        17.00
     number of Kohn-Sham states=           13
     kinetic-energy cutoff     =      50.0000  Ry
     charge density cutoff     =     400.0000  Ry
     Exchange-correlation= PBE
                           (   1   4   3   4   0   0   0)

     celldm(1)=   6.311685  celldm(2)=   0.000000  celldm(3)=   4.491018
     celldm(4)=   0.000000  celldm(5)=   0.000000  celldm(6)=   0.000000

     crystal axes: (cart. coord. in units of alat)
               a(1) = (   1.000000   0.000000   0.000000 )  
               a(2) = (  -0.500000   0.866025   0.000000 )  
               a(3) = (   0.000000   0.000000   4.491018 )  

     reciprocal axes: (cart. coord. in units 2 pi/alat)
               b(1) = (  1.000000  0.577350  0.000000 )  
               b(2) = (  0.000000  1.154701  0.000000 )  
               b(3) = (  0.000000  0.000000  0.222667 )  


     PseudoPot. # 1 for Ta read from file:
     ./pseudos/Ta.pbe-hgh.UPF
     MD5 check sum: 129c51a9a4223465c43ca8d238d17e53
     Pseudo is Norm-conserving, Zval =  5.0
     Generated in analytical, separable form
     Using radial grid of 1273 points,  6 beta functions with: 
                l(1) =   0
                l(2) =   0
                l(3) =   1
                l(4) =   1
                l(5) =   2
                l(6) =   2

     PseudoPot. # 2 for S  read from file:
     ./pseudos/S.pbe-hgh.UPF
     MD5 check sum: 3a21e384b95a7cc84d045d3bcc0c4ba8
     Pseudo is Norm-conserving, Zval =  6.0
     Generated in analytical, separable form
     Using radial grid of 1151 points,  3 beta functions with: 
                l(1) =   0
                l(2) =   0
                l(3) =   1

     atomic species   valence    mass     pseudopotential
        Ta             5.00   180.95000     Ta( 1.00)
        S              6.00    32.06000     S ( 1.00)

     12 Sym. Ops. (no inversion) found



   Cartesian axes

     site n.     atom                  positions (alat units)
         1           S   tau(   1) = (  -0.0000000   0.5773503   0.4679048  )
         2           Ta  tau(   2) = (   0.0000000   0.0000000   0.0000000  )
         3           S   tau(   3) = (  -0.0000000   0.5773503  -0.4679048  )

     number of k points=  1152  Marzari-Vanderbilt smearing, width (Ry)=  0.0060

     Number of k-points >= 100: set verbosity='high' to print them.

     Dense  grid:   132031 G-vectors     FFT dimensions: (  45,  45, 192)

     Smooth grid:    46753 G-vectors     FFT dimensions: (  30,  30, 128)

     Estimated max dynamical RAM per process >       6.71 MB

     Estimated total dynamical RAM >     120.78 MB
 ----2D----2D----2D----2D----2D----2D----2D----2D----2D----2D----2D----2D
  The code is running with the 2D cutoff
  Please refer to:
  Sohier, T., Calandra, M., & Mauri, F. (2017), 
  Density functional perturbation theory for gated two-dimensional heterostructu
 res:
  Theoretical developments and application to flexural phonons in graphene.
  Physical Review B, 96(7), 75448. https://doi.org/10.1103/PhysRevB.96.075448
 ----2D----2D----2D----2D----2D----2D----2D----2D----2D----2D----2D----2D

     The potential is recalculated from file :
     /fastscratch/tsievers/TaS2_24_phonons/_ph2/TaS2_phonons.q_8/TaS2_phonons.save/charge-density

     Starting wfcs are   27 atomic wfcs

     Band Structure Calculation
     Davidson diagonalization with overlap

     ethr =  5.88E-11,  avg # of iterations = 20.5

     total cpu time spent up to now is      243.2 secs

     End of band structure calculation

     Number of k-points >= 100: set verbosity='high' to print the bands.

     the Fermi energy is    -5.8804 ev

     Writing config to output data dir /fastscratch/tsievers/TaS2_24_phonons/_ph2/TaS2_phonons.q_8/TaS2_phonons.save/

     TaS2                                                                       

     bravais-lattice index     =            4
     lattice parameter (alat)  =       6.3117  a.u.
     unit-cell volume          =     977.9382 (a.u.)^3
     number of atoms/cell      =            3
     number of atomic types    =            2
     kinetic-energy cut-off    =      50.0000  Ry
     charge density cut-off    =     400.0000  Ry
     convergence threshold     =      1.0E-21
     beta                      =       0.7000
     number of iterations used =            4
     Exchange-correlation= PBE
                           (   1   4   3   4   0   0   0)


     celldm(1)=    6.31169  celldm(2)=    0.00000  celldm(3)=    4.49102
     celldm(4)=    0.00000  celldm(5)=    0.00000  celldm(6)=    0.00000

     crystal axes: (cart. coord. in units of alat)
               a(1) = (  1.0000  0.0000  0.0000 )  
               a(2) = ( -0.5000  0.8660  0.0000 )  
               a(3) = (  0.0000  0.0000  4.4910 )  

     reciprocal axes: (cart. coord. in units 2 pi/alat)
               b(1) = (  1.0000  0.5774  0.0000 )  
               b(2) = (  0.0000  1.1547  0.0000 )  
               b(3) = (  0.0000  0.0000  0.2227 )  


     Atoms inside the unit cell: 

     Cartesian axes

     site n.  atom      mass           positions (alat units)
        1     S   32.0600   tau(    1) = (   -0.00000    0.57735    0.46790  )
        2     Ta 180.9500   tau(    2) = (    0.00000    0.00000    0.00000  )
        3     S   32.0600   tau(    3) = (   -0.00000    0.57735   -0.46790  )

     Computing dynamical matrix for 
                    q = (   0.0833333   0.1443376   0.0000000 )
 
      2 Sym.Ops. (no q -> -q+G )


     G cutoff =  403.6370  (   7330 G-vectors)     FFT grid: ( 45, 45,192)
     G cutoff =  201.8185  (   2599 G-vectors)  smooth grid: ( 30, 30,128)

     number of k points=  1152  Marzari-Vanderbilt smearing, width (Ry)=  0.0060

     PseudoPot. # 1 for Ta read from file:
     ./pseudos/Ta.pbe-hgh.UPF
     MD5 check sum: 129c51a9a4223465c43ca8d238d17e53
     Pseudo is Norm-conserving, Zval =  5.0
     Generated in analytical, separable form
     Using radial grid of 1273 points,  6 beta functions with: 
                l(1) =   0
                l(2) =   0
                l(3) =   1
                l(4) =   1
                l(5) =   2
                l(6) =   2

     PseudoPot. # 2 for S  read from file:
     ./pseudos/S.pbe-hgh.UPF
     MD5 check sum: 3a21e384b95a7cc84d045d3bcc0c4ba8
     Pseudo is Norm-conserving, Zval =  6.0
     Generated in analytical, separable form
     Using radial grid of 1151 points,  3 beta functions with: 
                l(1) =   0
                l(2) =   0
                l(3) =   1

     Mode symmetry, C_s (m)     point group:


     Atomic displacements:
     There are    9 irreducible representations

     Representation     1      1 modes -  To be done

     Representation     2      1 modes -  To be done

     Representation     3      1 modes -  To be done

     Representation     4      1 modes -  To be done

     Representation     5      1 modes -  To be done

     Representation     6      1 modes -  To be done

     Representation     7      1 modes -  To be done

     Representation     8      1 modes -  To be done

     Representation     9      1 modes -  To be done



     Alpha used in Ewald sum =   2.8000
     PHONON       :   3m43.28s CPU   4m 9.18s WALL



     Representation #   1 mode #   1

     Self-consistent Calculation

      iter #   1 total cpu time :   272.1 secs   av.it.:   8.9
      thresh= 1.000E-02 alpha_mix =  0.700 |ddv_scf|^2 =  1.348E-03

      iter #   2 total cpu time :   316.2 secs   av.it.:  15.2
      thresh= 3.672E-03 alpha_mix =  0.700 |ddv_scf|^2 =  1.758E+00

      iter #   3 total cpu time :   348.5 secs   av.it.:  13.7
      thresh= 1.000E-02 alpha_mix =  0.700 |ddv_scf|^2 =  5.903E-05

      iter #   4 total cpu time :   385.8 secs   av.it.:  13.0
      thresh= 7.683E-04 alpha_mix =  0.700 |ddv_scf|^2 =  2.502E-05

      iter #   5 total cpu time :   423.5 secs   av.it.:  12.8
      thresh= 5.002E-04 alpha_mix =  0.700 |ddv_scf|^2 =  1.688E-08

      iter #   6 total cpu time :   460.2 secs   av.it.:  15.2
      thresh= 1.299E-05 alpha_mix =  0.700 |ddv_scf|^2 =  1.307E-06

      iter #   7 total cpu time :   495.0 secs   av.it.:   9.7
      thresh= 1.143E-04 alpha_mix =  0.700 |ddv_scf|^2 =  1.014E-08

      iter #   8 total cpu time :   530.8 secs   av.it.:  13.2
      thresh= 1.007E-05 alpha_mix =  0.700 |ddv_scf|^2 =  8.947E-10

      iter #   9 total cpu time :   563.6 secs   av.it.:  12.2
      thresh= 2.991E-06 alpha_mix =  0.700 |ddv_scf|^2 =  2.302E-11

      iter #  10 total cpu time :   602.1 secs   av.it.:  13.2
      thresh= 4.798E-07 alpha_mix =  0.700 |ddv_scf|^2 =  1.593E-11

      iter #  11 total cpu time :   637.4 secs   av.it.:  12.3
      thresh= 3.991E-07 alpha_mix =  0.700 |ddv_scf|^2 =  2.177E-11

      iter #  12 total cpu time :   670.2 secs   av.it.:  11.0
      thresh= 4.666E-07 alpha_mix =  0.700 |ddv_scf|^2 =  4.124E-13

      iter #  13 total cpu time :   707.1 secs   av.it.:  12.8
      thresh= 6.421E-08 alpha_mix =  0.700 |ddv_scf|^2 =  1.205E-12

      iter #  14 total cpu time :   737.9 secs   av.it.:  11.8
      thresh= 1.098E-07 alpha_mix =  0.700 |ddv_scf|^2 =  6.932E-14

      iter #  15 total cpu time :   774.9 secs   av.it.:  11.5
      thresh= 2.633E-08 alpha_mix =  0.700 |ddv_scf|^2 =  3.418E-16

      iter #  16 total cpu time :   808.9 secs   av.it.:  12.6
      thresh= 1.849E-09 alpha_mix =  0.700 |ddv_scf|^2 =  4.411E-16

      iter #  17 total cpu time :   840.2 secs   av.it.:  10.5
      thresh= 2.100E-09 alpha_mix =  0.700 |ddv_scf|^2 =  1.003E-16

      iter #  18 total cpu time :   888.0 secs   av.it.:  11.5
      thresh= 1.001E-09 alpha_mix =  0.700 |ddv_scf|^2 =  2.544E-18

      iter #  19 total cpu time :   921.3 secs   av.it.:  11.9
      thresh= 1.595E-10 alpha_mix =  0.700 |ddv_scf|^2 =  1.489E-19

      iter #  20 total cpu time :   952.4 secs   av.it.:  11.5
      thresh= 3.859E-11 alpha_mix =  0.700 |ddv_scf|^2 =  1.553E-20

      iter #  21 total cpu time :   986.3 secs   av.it.:  12.2
      thresh= 1.246E-11 alpha_mix =  0.700 |ddv_scf|^2 =  5.148E-22

     End of self-consistent calculation

     Convergence has been achieved 


     Representation #   2 mode #   2

     Self-consistent Calculation

      iter #   1 total cpu time :  1017.2 secs   av.it.:   7.9
      thresh= 1.000E-02 alpha_mix =  0.700 |ddv_scf|^2 =  3.780E-04

      iter #   2 total cpu time :  1090.6 secs   av.it.:  15.2
      thresh= 1.944E-03 alpha_mix =  0.700 |ddv_scf|^2 =  4.949E-01

      iter #   3 total cpu time :  1129.1 secs   av.it.:  12.6
      thresh= 1.000E-02 alpha_mix =  0.700 |ddv_scf|^2 =  7.551E-06

      iter #   4 total cpu time :  1157.0 secs   av.it.:  11.4
      thresh= 2.748E-04 alpha_mix =  0.700 |ddv_scf|^2 =  1.524E-07

      iter #   5 total cpu time :  1192.9 secs   av.it.:  13.0
      thresh= 3.904E-05 alpha_mix =  0.700 |ddv_scf|^2 =  2.722E-07

      iter #   6 total cpu time :  1227.0 secs   av.it.:  11.0
      thresh= 5.218E-05 alpha_mix =  0.700 |ddv_scf|^2 =  3.404E-08

      iter #   7 total cpu time :  1263.6 secs   av.it.:   9.8
      thresh= 1.845E-05 alpha_mix =  0.700 |ddv_scf|^2 =  6.112E-10

      iter #   8 total cpu time :  1300.6 secs   av.it.:  13.7
      thresh= 2.472E-06 alpha_mix =  0.700 |ddv_scf|^2 =  4.221E-10

      iter #   9 total cpu time :  1335.8 secs   av.it.:  12.2
      thresh= 2.054E-06 alpha_mix =  0.700 |ddv_scf|^2 =  4.328E-11

      iter #  10 total cpu time :  1369.8 secs   av.it.:  11.9
      thresh= 6.579E-07 alpha_mix =  0.700 |ddv_scf|^2 =  8.580E-13

      iter #  11 total cpu time :  1403.3 secs   av.it.:  13.1
      thresh= 9.263E-08 alpha_mix =  0.700 |ddv_scf|^2 =  1.924E-12

      iter #  12 total cpu time :  1436.9 secs   av.it.:  10.6
      thresh= 1.387E-07 alpha_mix =  0.700 |ddv_scf|^2 =  2.248E-13

      iter #  13 total cpu time :  1473.4 secs   av.it.:  12.1
      thresh= 4.741E-08 alpha_mix =  0.700 |ddv_scf|^2 =  4.629E-14

      iter #  14 total cpu time :  1509.7 secs   av.it.:  11.6
      thresh= 2.151E-08 alpha_mix =  0.700 |ddv_scf|^2 =  1.837E-15

      iter #  15 total cpu time :  1541.1 secs   av.it.:  13.0
      thresh= 4.287E-09 alpha_mix =  0.700 |ddv_scf|^2 =  1.325E-15

      iter #  16 total cpu time :  1577.0 secs   av.it.:  11.5
      thresh= 3.641E-09 alpha_mix =  0.700 |ddv_scf|^2 =  8.279E-18

      iter #  17 total cpu time :  1612.5 secs   av.it.:  11.6
      thresh= 2.877E-10 alpha_mix =  0.700 |ddv_scf|^2 =  7.588E-19

      iter #  18 total cpu time :  1646.3 secs   av.it.:  12.4
      thresh= 8.711E-11 alpha_mix =  0.700 |ddv_scf|^2 =  6.145E-19

      iter #  19 total cpu time :  1677.2 secs   av.it.:   9.1
      thresh= 7.839E-11 alpha_mix =  0.700 |ddv_scf|^2 =  5.267E-19

      iter #  20 total cpu time :  1709.6 secs   av.it.:  11.7
      thresh= 7.258E-11 alpha_mix =  0.700 |ddv_scf|^2 =  7.847E-21

      iter #  21 total cpu time :  1745.8 secs   av.it.:  13.4
      thresh= 8.858E-12 alpha_mix =  0.700 |ddv_scf|^2 =  1.187E-21

      iter #  22 total cpu time :  1779.6 secs   av.it.:  11.9
      thresh= 3.445E-12 alpha_mix =  0.700 |ddv_scf|^2 =  5.563E-23

     End of self-consistent calculation

     Convergence has been achieved 


     Representation #   3 mode #   3

     Self-consistent Calculation

      iter #   1 total cpu time :  1810.6 secs   av.it.:   9.1
      thresh= 1.000E-02 alpha_mix =  0.700 |ddv_scf|^2 =  7.344E-04

      iter #   2 total cpu time :  1856.3 secs   av.it.:  15.5
      thresh= 2.710E-03 alpha_mix =  0.700 |ddv_scf|^2 =  1.046E+00

      iter #   3 total cpu time :  1890.1 secs   av.it.:  13.1
      thresh= 1.000E-02 alpha_mix =  0.700 |ddv_scf|^2 =  1.374E-03

      iter #   4 total cpu time :  1925.2 secs   av.it.:  12.6
      thresh= 3.706E-03 alpha_mix =  0.700 |ddv_scf|^2 =  4.045E-03

      iter #   5 total cpu time :  1954.4 secs   av.it.:  11.1
      thresh= 6.360E-03 alpha_mix =  0.700 |ddv_scf|^2 =  1.302E-05

      iter #   6 total cpu time :  1992.0 secs   av.it.:  11.9
      thresh= 3.608E-04 alpha_mix =  0.700 |ddv_scf|^2 =  5.262E-07

      iter #   7 total cpu time :  2033.4 secs   av.it.:  11.7
      thresh= 7.254E-05 alpha_mix =  0.700 |ddv_scf|^2 =  1.621E-06

      iter #   8 total cpu time :  2063.6 secs   av.it.:  10.9
      thresh= 1.273E-04 alpha_mix =  0.700 |ddv_scf|^2 =  3.365E-08

      iter #   9 total cpu time :  2101.6 secs   av.it.:  11.8
      thresh= 1.834E-05 alpha_mix =  0.700 |ddv_scf|^2 =  4.185E-10

      iter #  10 total cpu time :  2130.5 secs   av.it.:  10.5
      thresh= 2.046E-06 alpha_mix =  0.700 |ddv_scf|^2 =  6.489E-11

      iter #  11 total cpu time :  2161.2 secs   av.it.:  11.9
      thresh= 8.055E-07 alpha_mix =  0.700 |ddv_scf|^2 =  5.692E-12

      iter #  12 total cpu time :  2197.6 secs   av.it.:  12.2
      thresh= 2.386E-07 alpha_mix =  0.700 |ddv_scf|^2 =  4.753E-12

      iter #  13 total cpu time :  2231.4 secs   av.it.:  11.3
      thresh= 2.180E-07 alpha_mix =  0.700 |ddv_scf|^2 =  1.996E-14

      iter #  14 total cpu time :  2266.7 secs   av.it.:  12.6
      thresh= 1.413E-08 alpha_mix =  0.700 |ddv_scf|^2 =  1.952E-14

      iter #  15 total cpu time :  2304.6 secs   av.it.:  10.8
      thresh= 1.397E-08 alpha_mix =  0.700 |ddv_scf|^2 =  6.827E-15

      iter #  16 total cpu time :  2345.6 secs   av.it.:  12.2
      thresh= 8.263E-09 alpha_mix =  0.700 |ddv_scf|^2 =  1.027E-15

      iter #  17 total cpu time :  2374.2 secs   av.it.:  11.5
      thresh= 3.204E-09 alpha_mix =  0.700 |ddv_scf|^2 =  6.347E-18

      iter #  18 total cpu time :  2411.4 secs   av.it.:  11.8
      thresh= 2.519E-10 alpha_mix =  0.700 |ddv_scf|^2 =  6.263E-19

      iter #  19 total cpu time :  2452.5 secs   av.it.:  12.4
      thresh= 7.914E-11 alpha_mix =  0.700 |ddv_scf|^2 =  5.361E-19

      iter #  20 total cpu time :  2482.7 secs   av.it.:  11.2
      thresh= 7.322E-11 alpha_mix =  0.700 |ddv_scf|^2 =  1.932E-19

      iter #  21 total cpu time :  2516.6 secs   av.it.:  11.7
      thresh= 4.396E-11 alpha_mix =  0.700 |ddv_scf|^2 =  7.631E-20

      iter #  22 total cpu time :  2550.3 secs   av.it.:  11.5
      thresh= 2.762E-11 alpha_mix =  0.700 |ddv_scf|^2 =  1.021E-19

      iter #  23 total cpu time :  2594.5 secs   av.it.:  11.4
      thresh= 3.195E-11 alpha_mix =  0.700 |ddv_scf|^2 =  2.483E-21

      iter #  24 total cpu time :  2635.1 secs   av.it.:  11.6
      thresh= 4.983E-12 alpha_mix =  0.700 |ddv_scf|^2 =  1.100E-21

      iter #  25 total cpu time :  2661.2 secs   av.it.:  11.6
      thresh= 3.316E-12 alpha_mix =  0.700 |ddv_scf|^2 =  3.956E-24

     End of self-consistent calculation

     Convergence has been achieved 


     Representation #   4 mode #   4

     Self-consistent Calculation

      iter #   1 total cpu time :  2690.8 secs   av.it.:   8.1
      thresh= 1.000E-02 alpha_mix =  0.700 |ddv_scf|^2 =  6.797E-04

      iter #   2 total cpu time :  2769.3 secs   av.it.:  15.2
      thresh= 2.607E-03 alpha_mix =  0.700 |ddv_scf|^2 =  8.897E-01

      iter #   3 total cpu time :  2805.5 secs   av.it.:  13.0
      thresh= 1.000E-02 alpha_mix =  0.700 |ddv_scf|^2 =  1.369E-05

      iter #   4 total cpu time :  2836.9 secs   av.it.:  11.2
      thresh= 3.699E-04 alpha_mix =  0.700 |ddv_scf|^2 =  3.568E-07

      iter #   5 total cpu time :  2879.9 secs   av.it.:  12.7
      thresh= 5.974E-05 alpha_mix =  0.700 |ddv_scf|^2 =  4.631E-07

      iter #   6 total cpu time :  2911.6 secs   av.it.:  10.9
      thresh= 6.805E-05 alpha_mix =  0.700 |ddv_scf|^2 =  5.063E-08

      iter #   7 total cpu time :  2944.2 secs   av.it.:   9.7
      thresh= 2.250E-05 alpha_mix =  0.700 |ddv_scf|^2 =  6.009E-11

      iter #   8 total cpu time :  2985.9 secs   av.it.:  16.2
      thresh= 7.752E-07 alpha_mix =  0.700 |ddv_scf|^2 =  6.580E-10

      iter #   9 total cpu time :  3023.7 secs   av.it.:  12.1
      thresh= 2.565E-06 alpha_mix =  0.700 |ddv_scf|^2 =  2.646E-11

      iter #  10 total cpu time :  3056.6 secs   av.it.:  12.2
      thresh= 5.144E-07 alpha_mix =  0.700 |ddv_scf|^2 =  1.440E-12

      iter #  11 total cpu time :  3093.5 secs   av.it.:  12.7
      thresh= 1.200E-07 alpha_mix =  0.700 |ddv_scf|^2 =  2.487E-12

      iter #  12 total cpu time :  3121.1 secs   av.it.:  10.1
      thresh= 1.577E-07 alpha_mix =  0.700 |ddv_scf|^2 =  3.425E-13

      iter #  13 total cpu time :  3157.1 secs   av.it.:  11.9
      thresh= 5.852E-08 alpha_mix =  0.700 |ddv_scf|^2 =  6.685E-14

      iter #  14 total cpu time :  3192.9 secs   av.it.:  11.8
      thresh= 2.586E-08 alpha_mix =  0.700 |ddv_scf|^2 =  3.295E-15

      iter #  15 total cpu time :  3231.8 secs   av.it.:  12.4
      thresh= 5.740E-09 alpha_mix =  0.700 |ddv_scf|^2 =  7.392E-16

      iter #  16 total cpu time :  3271.9 secs   av.it.:  11.7
      thresh= 2.719E-09 alpha_mix =  0.700 |ddv_scf|^2 =  8.869E-17

      iter #  17 total cpu time :  3305.1 secs   av.it.:  11.5
      thresh= 9.417E-10 alpha_mix =  0.700 |ddv_scf|^2 =  1.169E-18

      iter #  18 total cpu time :  3342.2 secs   av.it.:  13.7
      thresh= 1.081E-10 alpha_mix =  0.700 |ddv_scf|^2 =  4.001E-18

      iter #  19 total cpu time :  3374.7 secs   av.it.:  10.7
      thresh= 2.000E-10 alpha_mix =  0.700 |ddv_scf|^2 =  3.063E-19

      iter #  20 total cpu time :  3410.7 secs   av.it.:  12.0
      thresh= 5.534E-11 alpha_mix =  0.700 |ddv_scf|^2 =  3.370E-20

      iter #  21 total cpu time :  3449.5 secs   av.it.:  12.1
      thresh= 1.836E-11 alpha_mix =  0.700 |ddv_scf|^2 =  1.145E-21

      iter #  22 total cpu time :  3481.0 secs   av.it.:  13.1
      thresh= 3.384E-12 alpha_mix =  0.700 |ddv_scf|^2 =  1.983E-21

      iter #  23 total cpu time :  3517.0 secs   av.it.:  11.0
      thresh= 4.453E-12 alpha_mix =  0.700 |ddv_scf|^2 =  2.970E-23

     End of self-consistent calculation

     Convergence has been achieved 


     Representation #   5 mode #   5

     Self-consistent Calculation

      iter #   1 total cpu time :  3572.9 secs   av.it.:   8.9
      thresh= 1.000E-02 alpha_mix =  0.700 |ddv_scf|^2 =  1.232E-03

      iter #   2 total cpu time :  3609.7 secs   av.it.:  15.2
      thresh= 3.511E-03 alpha_mix =  0.700 |ddv_scf|^2 =  1.601E+00

      iter #   3 total cpu time :  3645.3 secs   av.it.:  13.6
      thresh= 1.000E-02 alpha_mix =  0.700 |ddv_scf|^2 =  8.902E-05

      iter #   4 total cpu time :  3679.4 secs   av.it.:  12.4
      thresh= 9.435E-04 alpha_mix =  0.700 |ddv_scf|^2 =  6.807E-05

      iter #   5 total cpu time :  3709.0 secs   av.it.:  11.7
      thresh= 8.250E-04 alpha_mix =  0.700 |ddv_scf|^2 =  7.799E-09

      iter #   6 total cpu time :  3745.3 secs   av.it.:  15.6
      thresh= 8.831E-06 alpha_mix =  0.700 |ddv_scf|^2 =  5.056E-08

      iter #   7 total cpu time :  3779.0 secs   av.it.:  10.2
      thresh= 2.248E-05 alpha_mix =  0.700 |ddv_scf|^2 =  4.461E-09

      iter #   8 total cpu time :  3813.7 secs   av.it.:  13.8
      thresh= 6.679E-06 alpha_mix =  0.700 |ddv_scf|^2 =  6.012E-10

      iter #   9 total cpu time :  3845.4 secs   av.it.:  12.4
      thresh= 2.452E-06 alpha_mix =  0.700 |ddv_scf|^2 =  1.965E-10

      iter #  10 total cpu time :  3876.1 secs   av.it.:  12.1
      thresh= 1.402E-06 alpha_mix =  0.700 |ddv_scf|^2 =  5.287E-11

      iter #  11 total cpu time :  3909.5 secs   av.it.:  11.6
      thresh= 7.271E-07 alpha_mix =  0.700 |ddv_scf|^2 =  5.197E-12

      iter #  12 total cpu time :  3942.5 secs   av.it.:  11.8
      thresh= 2.280E-07 alpha_mix =  0.700 |ddv_scf|^2 =  6.874E-12

      iter #  13 total cpu time :  3976.7 secs   av.it.:  12.0
      thresh= 2.622E-07 alpha_mix =  0.700 |ddv_scf|^2 =  1.017E-12

      iter #  14 total cpu time :  4008.6 secs   av.it.:  12.6
      thresh= 1.009E-07 alpha_mix =  0.700 |ddv_scf|^2 =  1.253E-12

      iter #  15 total cpu time :  4043.7 secs   av.it.:  11.1
      thresh= 1.120E-07 alpha_mix =  0.700 |ddv_scf|^2 =  1.380E-14

      iter #  16 total cpu time :  4074.7 secs   av.it.:  11.6
      thresh= 1.175E-08 alpha_mix =  0.700 |ddv_scf|^2 =  8.313E-16

      iter #  17 total cpu time :  4105.8 secs   av.it.:  12.3
      thresh= 2.883E-09 alpha_mix =  0.700 |ddv_scf|^2 =  1.006E-16

      iter #  18 total cpu time :  4137.5 secs   av.it.:  11.6
      thresh= 1.003E-09 alpha_mix =  0.700 |ddv_scf|^2 =  1.236E-17

      iter #  19 total cpu time :  4170.4 secs   av.it.:  12.3
      thresh= 3.516E-10 alpha_mix =  0.700 |ddv_scf|^2 =  1.174E-17

      iter #  20 total cpu time :  4202.6 secs   av.it.:  11.9
      thresh= 3.427E-10 alpha_mix =  0.700 |ddv_scf|^2 =  1.387E-18

      iter #  21 total cpu time :  4234.3 secs   av.it.:  12.3
      thresh= 1.178E-10 alpha_mix =  0.700 |ddv_scf|^2 =  5.875E-20

      iter #  22 total cpu time :  4264.6 secs   av.it.:  10.9
      thresh= 2.424E-11 alpha_mix =  0.700 |ddv_scf|^2 =  2.908E-21

      iter #  23 total cpu time :  4302.9 secs   av.it.:  12.7
      thresh= 5.392E-12 alpha_mix =  0.700 |ddv_scf|^2 =  6.539E-23

     End of self-consistent calculation

     Convergence has been achieved 


     Representation #   6 mode #   6

     Self-consistent Calculation

      iter #   1 total cpu time :  4329.9 secs   av.it.:   8.2
      thresh= 1.000E-02 alpha_mix =  0.700 |ddv_scf|^2 =  2.218E-06

      iter #   2 total cpu time :  4368.4 secs   av.it.:  15.8
      thresh= 1.489E-04 alpha_mix =  0.700 |ddv_scf|^2 =  2.308E-05

      iter #   3 total cpu time :  4402.4 secs   av.it.:  13.4
      thresh= 4.804E-04 alpha_mix =  0.700 |ddv_scf|^2 =  2.491E-08

      iter #   4 total cpu time :  4448.8 secs   av.it.:  15.3
      thresh= 1.578E-05 alpha_mix =  0.700 |ddv_scf|^2 =  9.685E-10

      iter #   5 total cpu time :  4484.9 secs   av.it.:  14.8
      thresh= 3.112E-06 alpha_mix =  0.700 |ddv_scf|^2 =  5.147E-11

      iter #   6 total cpu time :  4519.0 secs   av.it.:  14.8
      thresh= 7.174E-07 alpha_mix =  0.700 |ddv_scf|^2 =  2.775E-13

      iter #   7 total cpu time :  4556.0 secs   av.it.:  16.2
      thresh= 5.268E-08 alpha_mix =  0.700 |ddv_scf|^2 =  3.102E-13

      iter #   8 total cpu time :  4590.5 secs   av.it.:  14.4
      thresh= 5.569E-08 alpha_mix =  0.700 |ddv_scf|^2 =  1.918E-13

      iter #   9 total cpu time :  4626.3 secs   av.it.:  14.0
      thresh= 4.379E-08 alpha_mix =  0.700 |ddv_scf|^2 =  3.136E-15

      iter #  10 total cpu time :  4663.1 secs   av.it.:  15.6
      thresh= 5.600E-09 alpha_mix =  0.700 |ddv_scf|^2 =  8.027E-16

      iter #  11 total cpu time :  4694.5 secs   av.it.:  14.8
      thresh= 2.833E-09 alpha_mix =  0.700 |ddv_scf|^2 =  9.177E-17

      iter #  12 total cpu time :  4736.2 secs   av.it.:  15.0
      thresh= 9.580E-10 alpha_mix =  0.700 |ddv_scf|^2 =  1.226E-17

      iter #  13 total cpu time :  4772.3 secs   av.it.:  15.7
      thresh= 3.501E-10 alpha_mix =  0.700 |ddv_scf|^2 =  1.315E-17

      iter #  14 total cpu time :  4806.4 secs   av.it.:  14.1
      thresh= 3.627E-10 alpha_mix =  0.700 |ddv_scf|^2 =  1.242E-20

      iter #  15 total cpu time :  4842.4 secs   av.it.:  16.3
      thresh= 1.114E-11 alpha_mix =  0.700 |ddv_scf|^2 =  6.180E-21

      iter #  16 total cpu time :  4875.7 secs   av.it.:  15.0
      thresh= 7.861E-12 alpha_mix =  0.700 |ddv_scf|^2 =  6.023E-22

     End of self-consistent calculation

     Convergence has been achieved 


     Representation #   7 mode #   7

     Self-consistent Calculation

      iter #   1 total cpu time :  4906.2 secs   av.it.:   8.2
      thresh= 1.000E-02 alpha_mix =  0.700 |ddv_scf|^2 =  6.636E-06

      iter #   2 total cpu time :  4951.3 secs   av.it.:  15.8
      thresh= 2.576E-04 alpha_mix =  0.700 |ddv_scf|^2 =  7.644E-05

      iter #   3 total cpu time :  4981.9 secs   av.it.:  13.3
      thresh= 8.743E-04 alpha_mix =  0.700 |ddv_scf|^2 =  2.408E-09

      iter #   4 total cpu time :  5029.7 secs   av.it.:  16.0
      thresh= 4.907E-06 alpha_mix =  0.700 |ddv_scf|^2 =  6.875E-10

      iter #   5 total cpu time :  5061.6 secs   av.it.:  14.8
      thresh= 2.622E-06 alpha_mix =  0.700 |ddv_scf|^2 =  6.034E-11

      iter #   6 total cpu time :  5093.9 secs   av.it.:  14.3
      thresh= 7.768E-07 alpha_mix =  0.700 |ddv_scf|^2 =  5.342E-12

      iter #   7 total cpu time :  5125.5 secs   av.it.:  14.0
      thresh= 2.311E-07 alpha_mix =  0.700 |ddv_scf|^2 =  8.786E-15

      iter #   8 total cpu time :  5160.8 secs   av.it.:  15.1
      thresh= 9.373E-09 alpha_mix =  0.700 |ddv_scf|^2 =  3.671E-16

      iter #   9 total cpu time :  5196.1 secs   av.it.:  15.8
      thresh= 1.916E-09 alpha_mix =  0.700 |ddv_scf|^2 =  1.024E-15

      iter #  10 total cpu time :  5231.7 secs   av.it.:  13.9
      thresh= 3.200E-09 alpha_mix =  0.700 |ddv_scf|^2 =  2.506E-16

      iter #  11 total cpu time :  5267.7 secs   av.it.:  14.8
      thresh= 1.583E-09 alpha_mix =  0.700 |ddv_scf|^2 =  5.212E-18

      iter #  12 total cpu time :  5303.6 secs   av.it.:  15.1
      thresh= 2.283E-10 alpha_mix =  0.700 |ddv_scf|^2 =  6.734E-19

      iter #  13 total cpu time :  5336.2 secs   av.it.:  14.9
      thresh= 8.206E-11 alpha_mix =  0.700 |ddv_scf|^2 =  3.479E-20

      iter #  14 total cpu time :  5369.4 secs   av.it.:  14.9
      thresh= 1.865E-11 alpha_mix =  0.700 |ddv_scf|^2 =  3.001E-21

      iter #  15 total cpu time :  5402.7 secs   av.it.:  14.6
      thresh= 5.478E-12 alpha_mix =  0.700 |ddv_scf|^2 =  2.782E-22

     End of self-consistent calculation

     Convergence has been achieved 


     Representation #   8 mode #   8

     Self-consistent Calculation

      iter #   1 total cpu time :  5430.8 secs   av.it.:   8.5
      thresh= 1.000E-02 alpha_mix =  0.700 |ddv_scf|^2 =  8.536E-06

      iter #   2 total cpu time :  5472.6 secs   av.it.:  15.5
      thresh= 2.922E-04 alpha_mix =  0.700 |ddv_scf|^2 =  8.157E-05

      iter #   3 total cpu time :  5504.7 secs   av.it.:  13.4
      thresh= 9.032E-04 alpha_mix =  0.700 |ddv_scf|^2 =  3.217E-07

      iter #   4 total cpu time :  5540.5 secs   av.it.:  14.3
      thresh= 5.672E-05 alpha_mix =  0.700 |ddv_scf|^2 =  1.483E-09

      iter #   5 total cpu time :  5575.4 secs   av.it.:  14.6
      thresh= 3.850E-06 alpha_mix =  0.700 |ddv_scf|^2 =  8.968E-12

      iter #   6 total cpu time :  5614.4 secs   av.it.:  15.0
      thresh= 2.995E-07 alpha_mix =  0.700 |ddv_scf|^2 =  2.510E-13

      iter #   7 total cpu time :  5646.9 secs   av.it.:  15.8
      thresh= 5.010E-08 alpha_mix =  0.700 |ddv_scf|^2 =  6.049E-14

      iter #   8 total cpu time :  5683.4 secs   av.it.:  14.8
      thresh= 2.459E-08 alpha_mix =  0.700 |ddv_scf|^2 =  8.963E-14

      iter #   9 total cpu time :  5716.2 secs   av.it.:  14.4
      thresh= 2.994E-08 alpha_mix =  0.700 |ddv_scf|^2 =  4.110E-14

      iter #  10 total cpu time :  5749.5 secs   av.it.:  14.0
      thresh= 2.027E-08 alpha_mix =  0.700 |ddv_scf|^2 =  6.440E-16

      iter #  11 total cpu time :  5786.1 secs   av.it.:  14.2
      thresh= 2.538E-09 alpha_mix =  0.700 |ddv_scf|^2 =  1.030E-17

      iter #  12 total cpu time :  5817.3 secs   av.it.:  14.4
      thresh= 3.210E-10 alpha_mix =  0.700 |ddv_scf|^2 =  1.160E-18

      iter #  13 total cpu time :  5855.0 secs   av.it.:  15.0
      thresh= 1.077E-10 alpha_mix =  0.700 |ddv_scf|^2 =  2.455E-19

      iter #  14 total cpu time :  5887.4 secs   av.it.:  14.3
      thresh= 4.955E-11 alpha_mix =  0.700 |ddv_scf|^2 =  7.830E-21

      iter #  15 total cpu time :  5922.3 secs   av.it.:  15.0
      thresh= 8.849E-12 alpha_mix =  0.700 |ddv_scf|^2 =  1.606E-22

     End of self-consistent calculation

     Convergence has been achieved 


     Representation #   9 mode #   9

     Self-consistent Calculation

      iter #   1 total cpu time :  5943.3 secs   av.it.:   8.3
      thresh= 1.000E-02 alpha_mix =  0.700 |ddv_scf|^2 =  1.981E-06

      iter #   2 total cpu time :  5989.0 secs   av.it.:  15.8
      thresh= 1.407E-04 alpha_mix =  0.700 |ddv_scf|^2 =  2.083E-05

      iter #   3 total cpu time :  6022.5 secs   av.it.:  13.4
      thresh= 4.564E-04 alpha_mix =  0.700 |ddv_scf|^2 =  1.828E-08

      iter #   4 total cpu time :  6075.8 secs   av.it.:  15.5
      thresh= 1.352E-05 alpha_mix =  0.700 |ddv_scf|^2 =  7.784E-10

      iter #   5 total cpu time :  6108.3 secs   av.it.:  14.8
      thresh= 2.790E-06 alpha_mix =  0.700 |ddv_scf|^2 =  2.753E-11

      iter #   6 total cpu time :  6143.4 secs   av.it.:  14.9
      thresh= 5.247E-07 alpha_mix =  0.700 |ddv_scf|^2 =  1.395E-12

      iter #   7 total cpu time :  6178.3 secs   av.it.:  15.1
      thresh= 1.181E-07 alpha_mix =  0.700 |ddv_scf|^2 =  3.222E-13

      iter #   8 total cpu time :  6211.5 secs   av.it.:  15.1
      thresh= 5.676E-08 alpha_mix =  0.700 |ddv_scf|^2 =  9.790E-13

      iter #   9 total cpu time :  6242.5 secs   av.it.:  13.5
      thresh= 9.894E-08 alpha_mix =  0.700 |ddv_scf|^2 =  1.352E-15

      iter #  10 total cpu time :  6280.7 secs   av.it.:  15.9
      thresh= 3.677E-09 alpha_mix =  0.700 |ddv_scf|^2 =  3.372E-16

      iter #  11 total cpu time :  6313.2 secs   av.it.:  15.3
      thresh= 1.836E-09 alpha_mix =  0.700 |ddv_scf|^2 =  8.267E-17

      iter #  12 total cpu time :  6347.7 secs   av.it.:  15.1
      thresh= 9.092E-10 alpha_mix =  0.700 |ddv_scf|^2 =  9.872E-18

      iter #  13 total cpu time :  6381.3 secs   av.it.:  15.3
      thresh= 3.142E-10 alpha_mix =  0.700 |ddv_scf|^2 =  1.005E-17

      iter #  14 total cpu time :  6412.0 secs   av.it.:  14.0
      thresh= 3.170E-10 alpha_mix =  0.700 |ddv_scf|^2 =  6.010E-21

      iter #  15 total cpu time :  6449.1 secs   av.it.:  16.5
      thresh= 7.752E-12 alpha_mix =  0.700 |ddv_scf|^2 =  7.790E-21

      iter #  16 total cpu time :  6480.9 secs   av.it.:  14.8
      thresh= 8.826E-12 alpha_mix =  0.700 |ddv_scf|^2 =  9.485E-23

     End of self-consistent calculation

     Convergence has been achieved 
 
     Number of q in the star =    6
     List of q in the star:
          1   0.083333333   0.144337567   0.000000000
          2  -0.166666667   0.000000000   0.000000000
          3   0.083333333  -0.144337567   0.000000000
          4  -0.083333333   0.144337567   0.000000000
          5  -0.083333333  -0.144337567   0.000000000
          6   0.166666667   0.000000000   0.000000000

     Diagonalizing the dynamical matrix

     q = (    0.083333333   0.144337567   0.000000000 ) 

 **************************************************************************
     freq (    1) =       0.894448 [THz] =      29.835565 [cm-1]
     freq (    2) =       1.291456 [THz] =      43.078322 [cm-1]
     freq (    3) =       2.109220 [THz] =      70.356013 [cm-1]
     freq (    4) =       7.228689 [THz] =     241.123101 [cm-1]
     freq (    5) =       7.503604 [THz] =     250.293278 [cm-1]
     freq (    6) =       7.809041 [THz] =     260.481578 [cm-1]
     freq (    7) =       8.253545 [THz] =     275.308637 [cm-1]
     freq (    8) =      10.853800 [THz] =     362.043789 [cm-1]
     freq (    9) =      11.840098 [THz] =     394.943143 [cm-1]
 **************************************************************************

     Mode symmetry, C_s (m)     point group:

     freq (   1-   1) =         29.8  [cm-1]   --> A''                
     freq (   2-   2) =         43.1  [cm-1]   --> A'                 
     freq (   3-   3) =         70.4  [cm-1]   --> A'                 
     freq (   4-   4) =        241.1  [cm-1]   --> A''                
     freq (   5-   5) =        250.3  [cm-1]   --> A''                
     freq (   6-   6) =        260.5  [cm-1]   --> A'                 
     freq (   7-   7) =        275.3  [cm-1]   --> A'                 
     freq (   8-   8) =        362.0  [cm-1]   --> A''                
     freq (   9-   9) =        394.9  [cm-1]   --> A'                 

     Calculation of q =    0.0833333   0.2405626   0.0000000
 
     Parallelization info
     --------------------
     sticks:   dense  smooth     PW     G-vecs:    dense   smooth      PW
     Min          60      31      9                 7329     2593     459
     Max          62      32     10                 7342     2605     478
     Sum        1099     559    169               132031    46753    8317
 
     Using Slab Decomposition
 

     Title: 
     TaS2                                                                       


     bravais-lattice index     =            4
     lattice parameter (alat)  =       6.3117  a.u.
     unit-cell volume          =     977.9382 (a.u.)^3
     number of atoms/cell      =            3
     number of atomic types    =            2
     number of electrons       =        17.00
     number of Kohn-Sham states=           13
     kinetic-energy cutoff     =      50.0000  Ry
     charge density cutoff     =     400.0000  Ry
     Exchange-correlation= PBE
                           (   1   4   3   4   0   0   0)

     celldm(1)=   6.311685  celldm(2)=   0.000000  celldm(3)=   4.491018
     celldm(4)=   0.000000  celldm(5)=   0.000000  celldm(6)=   0.000000

     crystal axes: (cart. coord. in units of alat)
               a(1) = (   1.000000   0.000000   0.000000 )  
               a(2) = (  -0.500000   0.866025   0.000000 )  
               a(3) = (   0.000000   0.000000   4.491018 )  

     reciprocal axes: (cart. coord. in units 2 pi/alat)
               b(1) = (  1.000000  0.577350  0.000000 )  
               b(2) = (  0.000000  1.154701  0.000000 )  
               b(3) = (  0.000000  0.000000  0.222667 )  


     PseudoPot. # 1 for Ta read from file:
     ./pseudos/Ta.pbe-hgh.UPF
     MD5 check sum: 129c51a9a4223465c43ca8d238d17e53
     Pseudo is Norm-conserving, Zval =  5.0
     Generated in analytical, separable form
     Using radial grid of 1273 points,  6 beta functions with: 
                l(1) =   0
                l(2) =   0
                l(3) =   1
                l(4) =   1
                l(5) =   2
                l(6) =   2

     PseudoPot. # 2 for S  read from file:
     ./pseudos/S.pbe-hgh.UPF
     MD5 check sum: 3a21e384b95a7cc84d045d3bcc0c4ba8
     Pseudo is Norm-conserving, Zval =  6.0
     Generated in analytical, separable form
     Using radial grid of 1151 points,  3 beta functions with: 
                l(1) =   0
                l(2) =   0
                l(3) =   1

     atomic species   valence    mass     pseudopotential
        Ta             5.00   180.95000     Ta( 1.00)
        S              6.00    32.06000     S ( 1.00)

     12 Sym. Ops. (no inversion) found



   Cartesian axes

     site n.     atom                  positions (alat units)
         1           S   tau(   1) = (  -0.0000000   0.5773503   0.4679048  )
         2           Ta  tau(   2) = (   0.0000000   0.0000000   0.0000000  )
         3           S   tau(   3) = (  -0.0000000   0.5773503  -0.4679048  )

     number of k points=  1152  Marzari-Vanderbilt smearing, width (Ry)=  0.0060

     Number of k-points >= 100: set verbosity='high' to print them.

     Dense  grid:   132031 G-vectors     FFT dimensions: (  45,  45, 192)

     Smooth grid:    46753 G-vectors     FFT dimensions: (  30,  30, 128)

     Estimated max dynamical RAM per process >       6.72 MB

     Estimated total dynamical RAM >     120.97 MB
 ----2D----2D----2D----2D----2D----2D----2D----2D----2D----2D----2D----2D
  The code is running with the 2D cutoff
  Please refer to:
  Sohier, T., Calandra, M., & Mauri, F. (2017), 
  Density functional perturbation theory for gated two-dimensional heterostructu
 res:
  Theoretical developments and application to flexural phonons in graphene.
  Physical Review B, 96(7), 75448. https://doi.org/10.1103/PhysRevB.96.075448
 ----2D----2D----2D----2D----2D----2D----2D----2D----2D----2D----2D----2D

     The potential is recalculated from file :
     /fastscratch/tsievers/TaS2_24_phonons/_ph2/TaS2_phonons.q_9/TaS2_phonons.save/charge-density

     Starting wfcs are   27 atomic wfcs

     Band Structure Calculation
     Davidson diagonalization with overlap

     ethr =  5.88E-11,  avg # of iterations = 20.5

     total cpu time spent up to now is      471.9 secs

     End of band structure calculation

     Number of k-points >= 100: set verbosity='high' to print the bands.

     the Fermi energy is    -5.8804 ev

     Writing config to output data dir /fastscratch/tsievers/TaS2_24_phonons/_ph2/TaS2_phonons.q_9/TaS2_phonons.save/

     TaS2                                                                       

     bravais-lattice index     =            4
     lattice parameter (alat)  =       6.3117  a.u.
     unit-cell volume          =     977.9382 (a.u.)^3
     number of atoms/cell      =            3
     number of atomic types    =            2
     kinetic-energy cut-off    =      50.0000  Ry
     charge density cut-off    =     400.0000  Ry
     convergence threshold     =      1.0E-21
     beta                      =       0.7000
     number of iterations used =            4
     Exchange-correlation= PBE
                           (   1   4   3   4   0   0   0)


     celldm(1)=    6.31169  celldm(2)=    0.00000  celldm(3)=    4.49102
     celldm(4)=    0.00000  celldm(5)=    0.00000  celldm(6)=    0.00000

     crystal axes: (cart. coord. in units of alat)
               a(1) = (  1.0000  0.0000  0.0000 )  
               a(2) = ( -0.5000  0.8660  0.0000 )  
               a(3) = (  0.0000  0.0000  4.4910 )  

     reciprocal axes: (cart. coord. in units 2 pi/alat)
               b(1) = (  1.0000  0.5774  0.0000 )  
               b(2) = (  0.0000  1.1547  0.0000 )  
               b(3) = (  0.0000  0.0000  0.2227 )  


     Atoms inside the unit cell: 

     Cartesian axes

     site n.  atom      mass           positions (alat units)
        1     S   32.0600   tau(    1) = (   -0.00000    0.57735    0.46790  )
        2     Ta 180.9500   tau(    2) = (    0.00000    0.00000    0.00000  )
        3     S   32.0600   tau(    3) = (   -0.00000    0.57735   -0.46790  )

     Computing dynamical matrix for 
                    q = (   0.0833333   0.2405626   0.0000000 )
 
      2 Sym.Ops. (no q -> -q+G )


     G cutoff =  403.6370  (   7330 G-vectors)     FFT grid: ( 45, 45,192)
     G cutoff =  201.8185  (   2599 G-vectors)  smooth grid: ( 30, 30,128)

     number of k points=  1152  Marzari-Vanderbilt smearing, width (Ry)=  0.0060

     PseudoPot. # 1 for Ta read from file:
     ./pseudos/Ta.pbe-hgh.UPF
     MD5 check sum: 129c51a9a4223465c43ca8d238d17e53
     Pseudo is Norm-conserving, Zval =  5.0
     Generated in analytical, separable form
     Using radial grid of 1273 points,  6 beta functions with: 
                l(1) =   0
                l(2) =   0
                l(3) =   1
                l(4) =   1
                l(5) =   2
                l(6) =   2

     PseudoPot. # 2 for S  read from file:
     ./pseudos/S.pbe-hgh.UPF
     MD5 check sum: 3a21e384b95a7cc84d045d3bcc0c4ba8
     Pseudo is Norm-conserving, Zval =  6.0
     Generated in analytical, separable form
     Using radial grid of 1151 points,  3 beta functions with: 
                l(1) =   0
                l(2) =   0
                l(3) =   1

     Mode symmetry, C_s (m)     point group:


     Atomic displacements:
     There are    9 irreducible representations

     Representation     1      1 modes -  To be done

     Representation     2      1 modes -  To be done

     Representation     3      1 modes -  To be done

     Representation     4      1 modes -  To be done

     Representation     5      1 modes -  To be done

     Representation     6      1 modes -  To be done

     Representation     7      1 modes -  To be done

     Representation     8      1 modes -  To be done

     Representation     9      1 modes -  To be done



     Alpha used in Ewald sum =   2.8000
     PHONON       :      1h44m CPU      1h51m WALL



     Representation #   1 mode #   1

     Self-consistent Calculation

      iter #   1 total cpu time :  6750.3 secs   av.it.:   9.1
      thresh= 1.000E-02 alpha_mix =  0.700 |ddv_scf|^2 =  2.248E-04

      iter #   2 total cpu time :  6787.5 secs   av.it.:  16.0
      thresh= 1.499E-03 alpha_mix =  0.700 |ddv_scf|^2 =  6.980E-02

      iter #   3 total cpu time :  6820.9 secs   av.it.:  12.9
      thresh= 1.000E-02 alpha_mix =  0.700 |ddv_scf|^2 =  6.982E-06

      iter #   4 total cpu time :  6858.7 secs   av.it.:  14.6
      thresh= 2.642E-04 alpha_mix =  0.700 |ddv_scf|^2 =  7.553E-06

      iter #   5 total cpu time :  6911.4 secs   av.it.:  13.4
      thresh= 2.748E-04 alpha_mix =  0.700 |ddv_scf|^2 =  8.486E-09

      iter #   6 total cpu time :  6944.8 secs   av.it.:  15.3
      thresh= 9.212E-06 alpha_mix =  0.700 |ddv_scf|^2 =  2.921E-07

      iter #   7 total cpu time :  6977.3 secs   av.it.:  12.0
      thresh= 5.405E-05 alpha_mix =  0.700 |ddv_scf|^2 =  1.470E-09

      iter #   8 total cpu time :  7009.5 secs   av.it.:  14.0
      thresh= 3.834E-06 alpha_mix =  0.700 |ddv_scf|^2 =  6.675E-12

      iter #   9 total cpu time :  7045.6 secs   av.it.:  16.1
      thresh= 2.584E-07 alpha_mix =  0.700 |ddv_scf|^2 =  2.215E-11

      iter #  10 total cpu time :  7079.6 secs   av.it.:  13.7
      thresh= 4.707E-07 alpha_mix =  0.700 |ddv_scf|^2 =  1.386E-11

      iter #  11 total cpu time :  7110.7 secs   av.it.:  13.3
      thresh= 3.723E-07 alpha_mix =  0.700 |ddv_scf|^2 =  1.589E-11

      iter #  12 total cpu time :  7142.4 secs   av.it.:  12.3
      thresh= 3.986E-07 alpha_mix =  0.700 |ddv_scf|^2 =  1.260E-13

      iter #  13 total cpu time :  7181.0 secs   av.it.:  15.4
      thresh= 3.550E-08 alpha_mix =  0.700 |ddv_scf|^2 =  1.126E-13

      iter #  14 total cpu time :  7212.2 secs   av.it.:  14.0
      thresh= 3.355E-08 alpha_mix =  0.700 |ddv_scf|^2 =  1.105E-14

      iter #  15 total cpu time :  7244.0 secs   av.it.:  13.5
      thresh= 1.051E-08 alpha_mix =  0.700 |ddv_scf|^2 =  2.451E-15

      iter #  16 total cpu time :  7277.7 secs   av.it.:  13.4
      thresh= 4.950E-09 alpha_mix =  0.700 |ddv_scf|^2 =  2.912E-15

      iter #  17 total cpu time :  7309.4 secs   av.it.:  13.4
      thresh= 5.397E-09 alpha_mix =  0.700 |ddv_scf|^2 =  9.561E-16

      iter #  18 total cpu time :  7342.5 secs   av.it.:  14.2
      thresh= 3.092E-09 alpha_mix =  0.700 |ddv_scf|^2 =  2.653E-18

      iter #  19 total cpu time :  7378.1 secs   av.it.:  15.7
      thresh= 1.629E-10 alpha_mix =  0.700 |ddv_scf|^2 =  4.416E-18

      iter #  20 total cpu time :  7411.4 secs   av.it.:  14.0
      thresh= 2.101E-10 alpha_mix =  0.700 |ddv_scf|^2 =  3.410E-18

      iter #  21 total cpu time :  7440.0 secs   av.it.:  12.1
      thresh= 1.847E-10 alpha_mix =  0.700 |ddv_scf|^2 =  8.740E-19

      iter #  22 total cpu time :  7474.3 secs   av.it.:  14.2
      thresh= 9.349E-11 alpha_mix =  0.700 |ddv_scf|^2 =  2.273E-19

      iter #  23 total cpu time :  7506.0 secs   av.it.:  13.4
      thresh= 4.768E-11 alpha_mix =  0.700 |ddv_scf|^2 =  1.786E-21

      iter #  24 total cpu time :  7540.4 secs   av.it.:  15.0
      thresh= 4.226E-12 alpha_mix =  0.700 |ddv_scf|^2 =  1.153E-20

      iter #  25 total cpu time :  7568.0 secs   av.it.:  12.8
      thresh= 1.074E-11 alpha_mix =  0.700 |ddv_scf|^2 =  1.437E-21

      iter #  26 total cpu time :  7599.4 secs   av.it.:  14.3
      thresh= 3.791E-12 alpha_mix =  0.700 |ddv_scf|^2 =  1.125E-21

      iter #  27 total cpu time :  7631.1 secs   av.it.:  13.1
      thresh= 3.353E-12 alpha_mix =  0.700 |ddv_scf|^2 =  9.275E-24

     End of self-consistent calculation

     Convergence has been achieved 


     Representation #   2 mode #   2

     Self-consistent Calculation

      iter #   1 total cpu time :  7651.6 secs   av.it.:   7.7
      thresh= 1.000E-02 alpha_mix =  0.700 |ddv_scf|^2 =  2.823E-05

      iter #   2 total cpu time :  7693.5 secs   av.it.:  16.1
      thresh= 5.313E-04 alpha_mix =  0.700 |ddv_scf|^2 =  8.867E-03

      iter #   3 total cpu time :  7719.7 secs   av.it.:  11.3
      thresh= 9.417E-03 alpha_mix =  0.700 |ddv_scf|^2 =  2.097E-07

      iter #   4 total cpu time :  7751.7 secs   av.it.:  14.6
      thresh= 4.579E-05 alpha_mix =  0.700 |ddv_scf|^2 =  1.234E-07

      iter #   5 total cpu time :  7785.7 secs   av.it.:  13.4
      thresh= 3.512E-05 alpha_mix =  0.700 |ddv_scf|^2 =  2.646E-08

      iter #   6 total cpu time :  7812.5 secs   av.it.:  11.8
      thresh= 1.627E-05 alpha_mix =  0.700 |ddv_scf|^2 =  2.248E-08

      iter #   7 total cpu time :  7839.5 secs   av.it.:  12.6
      thresh= 1.499E-05 alpha_mix =  0.700 |ddv_scf|^2 =  1.421E-11

      iter #   8 total cpu time :  7873.8 secs   av.it.:  16.3
      thresh= 3.769E-07 alpha_mix =  0.700 |ddv_scf|^2 =  1.077E-10

      iter #   9 total cpu time :  7904.4 secs   av.it.:  14.0
      thresh= 1.038E-06 alpha_mix =  0.700 |ddv_scf|^2 =  3.221E-11

      iter #  10 total cpu time :  7935.1 secs   av.it.:  13.5
      thresh= 5.675E-07 alpha_mix =  0.700 |ddv_scf|^2 =  1.275E-13

      iter #  11 total cpu time :  7967.3 secs   av.it.:  14.6
      thresh= 3.571E-08 alpha_mix =  0.700 |ddv_scf|^2 =  7.852E-14

      iter #  12 total cpu time :  8001.5 secs   av.it.:  14.2
      thresh= 2.802E-08 alpha_mix =  0.700 |ddv_scf|^2 =  4.740E-14

      iter #  13 total cpu time :  8032.4 secs   av.it.:  13.7
      thresh= 2.177E-08 alpha_mix =  0.700 |ddv_scf|^2 =  5.888E-15

      iter #  14 total cpu time :  8063.5 secs   av.it.:  13.9
      thresh= 7.673E-09 alpha_mix =  0.700 |ddv_scf|^2 =  2.142E-17

      iter #  15 total cpu time :  8094.8 secs   av.it.:  14.8
      thresh= 4.628E-10 alpha_mix =  0.700 |ddv_scf|^2 =  2.795E-17

      iter #  16 total cpu time :  8125.5 secs   av.it.:  13.9
      thresh= 5.287E-10 alpha_mix =  0.700 |ddv_scf|^2 =  6.431E-17

      iter #  17 total cpu time :  8154.4 secs   av.it.:  12.2
      thresh= 8.020E-10 alpha_mix =  0.700 |ddv_scf|^2 =  2.153E-17

      iter #  18 total cpu time :  8183.7 secs   av.it.:  13.4
      thresh= 4.640E-10 alpha_mix =  0.700 |ddv_scf|^2 =  1.470E-18

      iter #  19 total cpu time :  8215.0 secs   av.it.:  13.7
      thresh= 1.212E-10 alpha_mix =  0.700 |ddv_scf|^2 =  1.659E-19

      iter #  20 total cpu time :  8249.0 secs   av.it.:  14.4
      thresh= 4.074E-11 alpha_mix =  0.700 |ddv_scf|^2 =  1.677E-19

      iter #  21 total cpu time :  8278.0 secs   av.it.:  14.1
      thresh= 4.095E-11 alpha_mix =  0.700 |ddv_scf|^2 =  8.260E-20

      iter #  22 total cpu time :  8308.6 secs   av.it.:  13.4
      thresh= 2.874E-11 alpha_mix =  0.700 |ddv_scf|^2 =  1.676E-21

      iter #  23 total cpu time :  8340.2 secs   av.it.:  15.1
      thresh= 4.094E-12 alpha_mix =  0.700 |ddv_scf|^2 =  5.758E-21

      iter #  24 total cpu time :  8371.1 secs   av.it.:  13.5
      thresh= 7.588E-12 alpha_mix =  0.700 |ddv_scf|^2 =  2.967E-21

      iter #  25 total cpu time :  8401.1 secs   av.it.:  12.3
      thresh= 5.447E-12 alpha_mix =  0.700 |ddv_scf|^2 =  3.458E-22

     End of self-consistent calculation

     Convergence has been achieved 


     Representation #   3 mode #   3

     Self-consistent Calculation

      iter #   1 total cpu time :  8425.3 secs   av.it.:   9.0
      thresh= 1.000E-02 alpha_mix =  0.700 |ddv_scf|^2 =  7.348E-05

      iter #   2 total cpu time :  8464.9 secs   av.it.:  16.3
      thresh= 8.572E-04 alpha_mix =  0.700 |ddv_scf|^2 =  2.574E-02

      iter #   3 total cpu time :  8493.3 secs   av.it.:  12.0
      thresh= 1.000E-02 alpha_mix =  0.700 |ddv_scf|^2 =  5.905E-05

      iter #   4 total cpu time :  8534.6 secs   av.it.:  13.9
      thresh= 7.684E-04 alpha_mix =  0.700 |ddv_scf|^2 =  3.941E-05

      iter #   5 total cpu time :  8564.2 secs   av.it.:  12.9
      thresh= 6.278E-04 alpha_mix =  0.700 |ddv_scf|^2 =  2.247E-07

      iter #   6 total cpu time :  8596.6 secs   av.it.:  14.1
      thresh= 4.740E-05 alpha_mix =  0.700 |ddv_scf|^2 =  7.213E-07

      iter #   7 total cpu time :  8621.1 secs   av.it.:  11.3
      thresh= 8.493E-05 alpha_mix =  0.700 |ddv_scf|^2 =  5.454E-09

      iter #   8 total cpu time :  8652.1 secs   av.it.:  14.3
      thresh= 7.385E-06 alpha_mix =  0.700 |ddv_scf|^2 =  3.736E-10

      iter #   9 total cpu time :  8682.1 secs   av.it.:  14.0
      thresh= 1.933E-06 alpha_mix =  0.700 |ddv_scf|^2 =  5.530E-11

      iter #  10 total cpu time :  8712.3 secs   av.it.:  13.3
      thresh= 7.436E-07 alpha_mix =  0.700 |ddv_scf|^2 =  3.074E-13

      iter #  11 total cpu time :  8745.8 secs   av.it.:  16.2
      thresh= 5.545E-08 alpha_mix =  0.700 |ddv_scf|^2 =  2.011E-12

      iter #  12 total cpu time :  8776.0 secs   av.it.:  13.4
      thresh= 1.418E-07 alpha_mix =  0.700 |ddv_scf|^2 =  6.686E-14

      iter #  13 total cpu time :  8805.7 secs   av.it.:  13.1
      thresh= 2.586E-08 alpha_mix =  0.700 |ddv_scf|^2 =  8.234E-15

      iter #  14 total cpu time :  8837.4 secs   av.it.:  13.9
      thresh= 9.074E-09 alpha_mix =  0.700 |ddv_scf|^2 =  1.771E-15

      iter #  15 total cpu time :  8865.8 secs   av.it.:  12.7
      thresh= 4.209E-09 alpha_mix =  0.700 |ddv_scf|^2 =  7.138E-16

      iter #  16 total cpu time :  8898.1 secs   av.it.:  13.3
      thresh= 2.672E-09 alpha_mix =  0.700 |ddv_scf|^2 =  3.567E-16

      iter #  17 total cpu time :  8927.7 secs   av.it.:  13.2
      thresh= 1.889E-09 alpha_mix =  0.700 |ddv_scf|^2 =  5.212E-18

      iter #  18 total cpu time :  8958.8 secs   av.it.:  14.7
      thresh= 2.283E-10 alpha_mix =  0.700 |ddv_scf|^2 =  1.968E-18

      iter #  19 total cpu time :  8988.6 secs   av.it.:  13.7
      thresh= 1.403E-10 alpha_mix =  0.700 |ddv_scf|^2 =  1.679E-19

      iter #  20 total cpu time :  9020.7 secs   av.it.:  13.5
      thresh= 4.098E-11 alpha_mix =  0.700 |ddv_scf|^2 =  6.218E-20

      iter #  21 total cpu time :  9051.1 secs   av.it.:  13.8
      thresh= 2.494E-11 alpha_mix =  0.700 |ddv_scf|^2 =  2.618E-21

      iter #  22 total cpu time :  9085.9 secs   av.it.:  14.0
      thresh= 5.117E-12 alpha_mix =  0.700 |ddv_scf|^2 =  4.411E-23

     End of self-consistent calculation

     Convergence has been achieved 


     Representation #   4 mode #   4

     Self-consistent Calculation

      iter #   1 total cpu time :  9105.6 secs   av.it.:   8.4
      thresh= 1.000E-02 alpha_mix =  0.700 |ddv_scf|^2 =  1.186E-04

      iter #   2 total cpu time :  9148.7 secs   av.it.:  16.1
      thresh= 1.089E-03 alpha_mix =  0.700 |ddv_scf|^2 =  3.726E-02

      iter #   3 total cpu time :  9174.2 secs   av.it.:  12.4
      thresh= 1.000E-02 alpha_mix =  0.700 |ddv_scf|^2 =  9.521E-07

      iter #   4 total cpu time :  9205.3 secs   av.it.:  14.3
      thresh= 9.757E-05 alpha_mix =  0.700 |ddv_scf|^2 =  6.150E-07

      iter #   5 total cpu time :  9233.8 secs   av.it.:  13.2
      thresh= 7.842E-05 alpha_mix =  0.700 |ddv_scf|^2 =  4.002E-08

      iter #   6 total cpu time :  9262.3 secs   av.it.:  12.7
      thresh= 2.001E-05 alpha_mix =  0.700 |ddv_scf|^2 =  8.488E-08

      iter #   7 total cpu time :  9293.0 secs   av.it.:  12.1
      thresh= 2.913E-05 alpha_mix =  0.700 |ddv_scf|^2 =  8.878E-11

      iter #   8 total cpu time :  9334.9 secs   av.it.:  14.7
      thresh= 9.422E-07 alpha_mix =  0.700 |ddv_scf|^2 =  3.452E-11

      iter #   9 total cpu time :  9367.5 secs   av.it.:  14.4
      thresh= 5.875E-07 alpha_mix =  0.700 |ddv_scf|^2 =  2.278E-11

      iter #  10 total cpu time :  9395.3 secs   av.it.:  13.4
      thresh= 4.773E-07 alpha_mix =  0.700 |ddv_scf|^2 =  1.055E-14

      iter #  11 total cpu time :  9429.3 secs   av.it.:  16.1
      thresh= 1.027E-08 alpha_mix =  0.700 |ddv_scf|^2 =  6.668E-15

      iter #  12 total cpu time :  9460.3 secs   av.it.:  15.0
      thresh= 8.166E-09 alpha_mix =  0.700 |ddv_scf|^2 =  2.460E-15

      iter #  13 total cpu time :  9493.0 secs   av.it.:  15.5
      thresh= 4.960E-09 alpha_mix =  0.700 |ddv_scf|^2 =  4.845E-14

      iter #  14 total cpu time :  9520.9 secs   av.it.:  11.5
      thresh= 2.201E-08 alpha_mix =  0.700 |ddv_scf|^2 =  3.713E-15

      iter #  15 total cpu time :  9551.9 secs   av.it.:  12.9
      thresh= 6.093E-09 alpha_mix =  0.700 |ddv_scf|^2 =  1.673E-15

      iter #  16 total cpu time :  9582.3 secs   av.it.:  14.4
      thresh= 4.090E-09 alpha_mix =  0.700 |ddv_scf|^2 =  8.583E-16

      iter #  17 total cpu time :  9613.4 secs   av.it.:  13.4
      thresh= 2.930E-09 alpha_mix =  0.700 |ddv_scf|^2 =  4.335E-16

      iter #  18 total cpu time :  9645.2 secs   av.it.:  13.5
      thresh= 2.082E-09 alpha_mix =  0.700 |ddv_scf|^2 =  1.544E-16

      iter #  19 total cpu time :  9675.8 secs   av.it.:  13.4
      thresh= 1.243E-09 alpha_mix =  0.700 |ddv_scf|^2 =  9.846E-18

      iter #  20 total cpu time :  9706.9 secs   av.it.:  14.8
      thresh= 3.138E-10 alpha_mix =  0.700 |ddv_scf|^2 =  1.817E-18

      iter #  21 total cpu time :  9738.6 secs   av.it.:  14.4
      thresh= 1.348E-10 alpha_mix =  0.700 |ddv_scf|^2 =  3.173E-19

      iter #  22 total cpu time :  9770.1 secs   av.it.:  13.0
      thresh= 5.633E-11 alpha_mix =  0.700 |ddv_scf|^2 =  7.255E-20

      iter #  23 total cpu time :  9800.2 secs   av.it.:  14.2
      thresh= 2.693E-11 alpha_mix =  0.700 |ddv_scf|^2 =  9.517E-20

      iter #  24 total cpu time :  9832.9 secs   av.it.:  13.2
      thresh= 3.085E-11 alpha_mix =  0.700 |ddv_scf|^2 =  1.065E-21

      iter #  25 total cpu time :  9864.8 secs   av.it.:  14.2
      thresh= 3.264E-12 alpha_mix =  0.700 |ddv_scf|^2 =  6.224E-22

     End of self-consistent calculation

     Convergence has been achieved 


     Representation #   5 mode #   5

     Self-consistent Calculation

      iter #   1 total cpu time :  9887.3 secs   av.it.:   8.8
      thresh= 1.000E-02 alpha_mix =  0.700 |ddv_scf|^2 =  1.101E-04

      iter #   2 total cpu time :  9931.5 secs   av.it.:  16.0
      thresh= 1.049E-03 alpha_mix =  0.700 |ddv_scf|^2 =  3.419E-02

      iter #   3 total cpu time :  9960.7 secs   av.it.:  12.4
      thresh= 1.000E-02 alpha_mix =  0.700 |ddv_scf|^2 =  3.396E-06

      iter #   4 total cpu time :  9992.5 secs   av.it.:  14.5
      thresh= 1.843E-04 alpha_mix =  0.700 |ddv_scf|^2 =  3.686E-06

      iter #   5 total cpu time : 10019.9 secs   av.it.:  13.3
      thresh= 1.920E-04 alpha_mix =  0.700 |ddv_scf|^2 =  7.120E-09

      iter #   6 total cpu time : 10054.1 secs   av.it.:  15.7
      thresh= 8.438E-06 alpha_mix =  0.700 |ddv_scf|^2 =  3.292E-07

      iter #   7 total cpu time : 10079.4 secs   av.it.:  11.5
      thresh= 5.738E-05 alpha_mix =  0.700 |ddv_scf|^2 =  4.892E-10

      iter #   8 total cpu time : 10115.3 secs   av.it.:  14.7
      thresh= 2.212E-06 alpha_mix =  0.700 |ddv_scf|^2 =  6.938E-12

      iter #   9 total cpu time : 10148.7 secs   av.it.:  15.9
      thresh= 2.634E-07 alpha_mix =  0.700 |ddv_scf|^2 =  2.133E-11

      iter #  10 total cpu time : 10177.9 secs   av.it.:  14.2
      thresh= 4.618E-07 alpha_mix =  0.700 |ddv_scf|^2 =  1.349E-11

      iter #  11 total cpu time : 10208.2 secs   av.it.:  13.5
      thresh= 3.673E-07 alpha_mix =  0.700 |ddv_scf|^2 =  1.468E-12

      iter #  12 total cpu time : 10240.2 secs   av.it.:  13.9
      thresh= 1.212E-07 alpha_mix =  0.700 |ddv_scf|^2 =  6.256E-13

      iter #  13 total cpu time : 10273.9 secs   av.it.:  14.7
      thresh= 7.909E-08 alpha_mix =  0.700 |ddv_scf|^2 =  4.458E-13

      iter #  14 total cpu time : 10301.7 secs   av.it.:  13.4
      thresh= 6.677E-08 alpha_mix =  0.700 |ddv_scf|^2 =  4.334E-15

      iter #  15 total cpu time : 10335.7 secs   av.it.:  14.2
      thresh= 6.583E-09 alpha_mix =  0.700 |ddv_scf|^2 =  2.184E-15

      iter #  16 total cpu time : 10366.7 secs   av.it.:  14.0
      thresh= 4.674E-09 alpha_mix =  0.700 |ddv_scf|^2 =  1.177E-15

      iter #  17 total cpu time : 10398.5 secs   av.it.:  14.2
      thresh= 3.430E-09 alpha_mix =  0.700 |ddv_scf|^2 =  1.926E-17

      iter #  18 total cpu time : 10430.4 secs   av.it.:  15.6
      thresh= 4.389E-10 alpha_mix =  0.700 |ddv_scf|^2 =  1.494E-16

      iter #  19 total cpu time : 10460.4 secs   av.it.:  12.8
      thresh= 1.222E-09 alpha_mix =  0.700 |ddv_scf|^2 =  5.903E-18

      iter #  20 total cpu time : 10491.4 secs   av.it.:  14.3
      thresh= 2.430E-10 alpha_mix =  0.700 |ddv_scf|^2 =  6.503E-18

      iter #  21 total cpu time : 10521.5 secs   av.it.:  13.3
      thresh= 2.550E-10 alpha_mix =  0.700 |ddv_scf|^2 =  2.295E-18

      iter #  22 total cpu time : 10557.3 secs   av.it.:  14.4
      thresh= 1.515E-10 alpha_mix =  0.700 |ddv_scf|^2 =  1.550E-18

      iter #  23 total cpu time : 10586.7 secs   av.it.:  13.7
      thresh= 1.245E-10 alpha_mix =  0.700 |ddv_scf|^2 =  3.119E-20

      iter #  24 total cpu time : 10619.0 secs   av.it.:  14.7
      thresh= 1.766E-11 alpha_mix =  0.700 |ddv_scf|^2 =  1.625E-20

      iter #  25 total cpu time : 10649.3 secs   av.it.:  13.5
      thresh= 1.275E-11 alpha_mix =  0.700 |ddv_scf|^2 =  1.612E-20

      iter #  26 total cpu time : 10680.0 secs   av.it.:  12.9
      thresh= 1.270E-11 alpha_mix =  0.700 |ddv_scf|^2 =  8.025E-22

     End of self-consistent calculation

     Convergence has been achieved 


     Representation #   6 mode #   6

     Self-consistent Calculation

      iter #   1 total cpu time : 10704.2 secs   av.it.:   8.3
      thresh= 1.000E-02 alpha_mix =  0.700 |ddv_scf|^2 =  1.824E-06

      iter #   2 total cpu time : 10745.6 secs   av.it.:  16.0
      thresh= 1.350E-04 alpha_mix =  0.700 |ddv_scf|^2 =  1.009E-05

      iter #   3 total cpu time : 10775.3 secs   av.it.:  14.1
      thresh= 3.177E-04 alpha_mix =  0.700 |ddv_scf|^2 =  2.422E-08

      iter #   4 total cpu time : 10808.1 secs   av.it.:  15.6
      thresh= 1.556E-05 alpha_mix =  0.700 |ddv_scf|^2 =  5.048E-10

      iter #   5 total cpu time : 10839.7 secs   av.it.:  15.3
      thresh= 2.247E-06 alpha_mix =  0.700 |ddv_scf|^2 =  2.069E-11

      iter #   6 total cpu time : 10873.3 secs   av.it.:  15.7
      thresh= 4.549E-07 alpha_mix =  0.700 |ddv_scf|^2 =  2.470E-13

      iter #   7 total cpu time : 10906.1 secs   av.it.:  15.9
      thresh= 4.970E-08 alpha_mix =  0.700 |ddv_scf|^2 =  8.246E-15

      iter #   8 total cpu time : 10949.8 secs   av.it.:  15.2
      thresh= 9.081E-09 alpha_mix =  0.700 |ddv_scf|^2 =  4.843E-16

      iter #   9 total cpu time : 10983.2 secs   av.it.:  16.3
      thresh= 2.201E-09 alpha_mix =  0.700 |ddv_scf|^2 =  9.646E-16

      iter #  10 total cpu time : 11013.0 secs   av.it.:  14.6
      thresh= 3.106E-09 alpha_mix =  0.700 |ddv_scf|^2 =  8.621E-17

      iter #  11 total cpu time : 11044.6 secs   av.it.:  15.0
      thresh= 9.285E-10 alpha_mix =  0.700 |ddv_scf|^2 =  8.637E-18

      iter #  12 total cpu time : 11078.0 secs   av.it.:  15.1
      thresh= 2.939E-10 alpha_mix =  0.700 |ddv_scf|^2 =  2.954E-19

      iter #  13 total cpu time : 11111.8 secs   av.it.:  15.7
      thresh= 5.435E-11 alpha_mix =  0.700 |ddv_scf|^2 =  2.935E-20

      iter #  14 total cpu time : 11141.7 secs   av.it.:  15.7
      thresh= 1.713E-11 alpha_mix =  0.700 |ddv_scf|^2 =  1.375E-21

      iter #  15 total cpu time : 11175.5 secs   av.it.:  16.2
      thresh= 3.709E-12 alpha_mix =  0.700 |ddv_scf|^2 =  2.041E-22

     End of self-consistent calculation

     Convergence has been achieved 


     Representation #   7 mode #   7

     Self-consistent Calculation

      iter #   1 total cpu time : 11197.8 secs   av.it.:   8.0
      thresh= 1.000E-02 alpha_mix =  0.700 |ddv_scf|^2 =  1.811E-06

      iter #   2 total cpu time : 11241.4 secs   av.it.:  16.1
      thresh= 1.346E-04 alpha_mix =  0.700 |ddv_scf|^2 =  1.133E-05

      iter #   3 total cpu time : 11271.1 secs   av.it.:  14.0
      thresh= 3.367E-04 alpha_mix =  0.700 |ddv_scf|^2 =  2.561E-09

      iter #   4 total cpu time : 11304.6 secs   av.it.:  15.8
      thresh= 5.061E-06 alpha_mix =  0.700 |ddv_scf|^2 =  8.663E-11

      iter #   5 total cpu time : 11335.8 secs   av.it.:  15.7
      thresh= 9.307E-07 alpha_mix =  0.700 |ddv_scf|^2 =  4.731E-12

      iter #   6 total cpu time : 11367.1 secs   av.it.:  15.4
      thresh= 2.175E-07 alpha_mix =  0.700 |ddv_scf|^2 =  7.247E-13

      iter #   7 total cpu time : 11400.0 secs   av.it.:  15.3
      thresh= 8.513E-08 alpha_mix =  0.700 |ddv_scf|^2 =  1.591E-14

      iter #   8 total cpu time : 11431.9 secs   av.it.:  15.8
      thresh= 1.261E-08 alpha_mix =  0.700 |ddv_scf|^2 =  3.835E-14

      iter #   9 total cpu time : 11462.3 secs   av.it.:  14.2
      thresh= 1.958E-08 alpha_mix =  0.700 |ddv_scf|^2 =  8.802E-16

      iter #  10 total cpu time : 11493.3 secs   av.it.:  15.2
      thresh= 2.967E-09 alpha_mix =  0.700 |ddv_scf|^2 =  9.710E-17

      iter #  11 total cpu time : 11525.5 secs   av.it.:  15.9
      thresh= 9.854E-10 alpha_mix =  0.700 |ddv_scf|^2 =  4.636E-18

      iter #  12 total cpu time : 11559.3 secs   av.it.:  16.9
      thresh= 2.153E-10 alpha_mix =  0.700 |ddv_scf|^2 =  1.644E-18

      iter #  13 total cpu time : 11595.4 secs   av.it.:  16.1
      thresh= 1.282E-10 alpha_mix =  0.700 |ddv_scf|^2 =  1.081E-18

      iter #  14 total cpu time : 11624.9 secs   av.it.:  14.9
      thresh= 1.040E-10 alpha_mix =  0.700 |ddv_scf|^2 =  1.598E-19

      iter #  15 total cpu time : 11656.0 secs   av.it.:  14.9
      thresh= 3.998E-11 alpha_mix =  0.700 |ddv_scf|^2 =  4.643E-20

      iter #  16 total cpu time : 11687.6 secs   av.it.:  15.0
      thresh= 2.155E-11 alpha_mix =  0.700 |ddv_scf|^2 =  2.135E-21

      iter #  17 total cpu time : 11722.0 secs   av.it.:  15.7
      thresh= 4.621E-12 alpha_mix =  0.700 |ddv_scf|^2 =  1.009E-22

     End of self-consistent calculation

     Convergence has been achieved 


     Representation #   8 mode #   8

     Self-consistent Calculation

      iter #   1 total cpu time : 11753.1 secs   av.it.:   8.3
      thresh= 1.000E-02 alpha_mix =  0.700 |ddv_scf|^2 =  2.023E-06

      iter #   2 total cpu time : 11789.0 secs   av.it.:  15.9
      thresh= 1.422E-04 alpha_mix =  0.700 |ddv_scf|^2 =  9.730E-06

      iter #   3 total cpu time : 11818.0 secs   av.it.:  14.2
      thresh= 3.119E-04 alpha_mix =  0.700 |ddv_scf|^2 =  8.409E-08

      iter #   4 total cpu time : 11848.8 secs   av.it.:  14.9
      thresh= 2.900E-05 alpha_mix =  0.700 |ddv_scf|^2 =  4.936E-10

      iter #   5 total cpu time : 11879.3 secs   av.it.:  14.6
      thresh= 2.222E-06 alpha_mix =  0.700 |ddv_scf|^2 =  8.219E-12

      iter #   6 total cpu time : 11926.1 secs   av.it.:  15.5
      thresh= 2.867E-07 alpha_mix =  0.700 |ddv_scf|^2 =  1.800E-13

      iter #   7 total cpu time : 11960.5 secs   av.it.:  16.4
      thresh= 4.243E-08 alpha_mix =  0.700 |ddv_scf|^2 =  5.413E-14

      iter #   8 total cpu time : 11993.8 secs   av.it.:  15.4
      thresh= 2.327E-08 alpha_mix =  0.700 |ddv_scf|^2 =  6.951E-14

      iter #   9 total cpu time : 12025.7 secs   av.it.:  14.4
      thresh= 2.636E-08 alpha_mix =  0.700 |ddv_scf|^2 =  2.449E-15

      iter #  10 total cpu time : 12058.4 secs   av.it.:  15.4
      thresh= 4.949E-09 alpha_mix =  0.700 |ddv_scf|^2 =  5.534E-16

      iter #  11 total cpu time : 12091.8 secs   av.it.:  14.8
      thresh= 2.352E-09 alpha_mix =  0.700 |ddv_scf|^2 =  6.918E-18

      iter #  12 total cpu time : 12123.4 secs   av.it.:  16.0
      thresh= 2.630E-10 alpha_mix =  0.700 |ddv_scf|^2 =  3.709E-19

      iter #  13 total cpu time : 12154.9 secs   av.it.:  16.1
      thresh= 6.091E-11 alpha_mix =  0.700 |ddv_scf|^2 =  8.920E-20

      iter #  14 total cpu time : 12186.1 secs   av.it.:  15.7
      thresh= 2.987E-11 alpha_mix =  0.700 |ddv_scf|^2 =  1.938E-20

      iter #  15 total cpu time : 12219.3 secs   av.it.:  15.8
      thresh= 1.392E-11 alpha_mix =  0.700 |ddv_scf|^2 =  3.181E-20

      iter #  16 total cpu time : 12247.5 secs   av.it.:  14.3
      thresh= 1.784E-11 alpha_mix =  0.700 |ddv_scf|^2 =  4.591E-22

     End of self-consistent calculation

     Convergence has been achieved 


     Representation #   9 mode #   9

     Self-consistent Calculation

      iter #   1 total cpu time : 12268.3 secs   av.it.:   8.2
      thresh= 1.000E-02 alpha_mix =  0.700 |ddv_scf|^2 =  9.510E-07

      iter #   2 total cpu time : 12311.3 secs   av.it.:  16.1
      thresh= 9.752E-05 alpha_mix =  0.700 |ddv_scf|^2 =  5.102E-06

      iter #   3 total cpu time : 12341.0 secs   av.it.:  14.1
      thresh= 2.259E-04 alpha_mix =  0.700 |ddv_scf|^2 =  1.708E-08

      iter #   4 total cpu time : 12373.0 secs   av.it.:  15.6
      thresh= 1.307E-05 alpha_mix =  0.700 |ddv_scf|^2 =  4.604E-10

      iter #   5 total cpu time : 12404.6 secs   av.it.:  15.4
      thresh= 2.146E-06 alpha_mix =  0.700 |ddv_scf|^2 =  2.996E-11

      iter #   6 total cpu time : 12436.2 secs   av.it.:  15.6
      thresh= 5.474E-07 alpha_mix =  0.700 |ddv_scf|^2 =  2.607E-13

      iter #   7 total cpu time : 12467.6 secs   av.it.:  15.3
      thresh= 5.106E-08 alpha_mix =  0.700 |ddv_scf|^2 =  3.097E-14

      iter #   8 total cpu time : 12500.8 secs   av.it.:  15.8
      thresh= 1.760E-08 alpha_mix =  0.700 |ddv_scf|^2 =  6.724E-14

      iter #   9 total cpu time : 12531.7 secs   av.it.:  14.5
      thresh= 2.593E-08 alpha_mix =  0.700 |ddv_scf|^2 =  3.684E-16

      iter #  10 total cpu time : 12563.9 secs   av.it.:  16.1
      thresh= 1.919E-09 alpha_mix =  0.700 |ddv_scf|^2 =  8.505E-17

      iter #  11 total cpu time : 12595.5 secs   av.it.:  15.7
      thresh= 9.222E-10 alpha_mix =  0.700 |ddv_scf|^2 =  1.728E-17

      iter #  12 total cpu time : 12629.3 secs   av.it.:  15.2
      thresh= 4.157E-10 alpha_mix =  0.700 |ddv_scf|^2 =  3.324E-19

      iter #  13 total cpu time : 12660.7 secs   av.it.:  16.4
      thresh= 5.766E-11 alpha_mix =  0.700 |ddv_scf|^2 =  3.057E-20

      iter #  14 total cpu time : 12692.5 secs   av.it.:  16.3
      thresh= 1.748E-11 alpha_mix =  0.700 |ddv_scf|^2 =  6.198E-21

      iter #  15 total cpu time : 12723.7 secs   av.it.:  15.4
      thresh= 7.873E-12 alpha_mix =  0.700 |ddv_scf|^2 =  2.942E-21

      iter #  16 total cpu time : 12754.6 secs   av.it.:  14.8
      thresh= 5.424E-12 alpha_mix =  0.700 |ddv_scf|^2 =  1.000E-22

     End of self-consistent calculation

     Convergence has been achieved 
 
     Number of q in the star =    6
     List of q in the star:
          1   0.083333333   0.240562612   0.000000000
          2  -0.250000000  -0.048112522   0.000000000
          3   0.166666667  -0.192450090   0.000000000
          4  -0.083333333   0.240562612   0.000000000
          5  -0.166666667  -0.192450090   0.000000000
          6   0.250000000  -0.048112522   0.000000000
     In addition there is the -q list: 
          1  -0.083333333  -0.240562612   0.000000000
          2   0.250000000   0.048112522   0.000000000
          3  -0.166666667   0.192450090   0.000000000
          4   0.083333333  -0.240562612   0.000000000
          5   0.166666667   0.192450090   0.000000000
          6  -0.250000000   0.048112522   0.000000000

     Diagonalizing the dynamical matrix

     q = (    0.083333333   0.240562612   0.000000000 ) 

 **************************************************************************
     freq (    1) =       1.218595 [THz] =      40.647943 [cm-1]
     freq (    2) =       1.247602 [THz] =      41.615509 [cm-1]
     freq (    3) =       2.012264 [THz] =      67.121911 [cm-1]
     freq (    4) =       7.107830 [THz] =     237.091675 [cm-1]
     freq (    5) =       7.638101 [THz] =     254.779616 [cm-1]
     freq (    6) =       8.132737 [THz] =     271.278910 [cm-1]
     freq (    7) =       8.168775 [THz] =     272.480990 [cm-1]
     freq (    8) =      10.452455 [THz] =     348.656385 [cm-1]
     freq (    9) =      11.655704 [THz] =     388.792439 [cm-1]
 **************************************************************************

     Mode symmetry, C_s (m)     point group:

     freq (   1-   1) =         40.6  [cm-1]   --> A''                
     freq (   2-   2) =         41.6  [cm-1]   --> A'                 
     freq (   3-   3) =         67.1  [cm-1]   --> A'                 
     freq (   4-   4) =        237.1  [cm-1]   --> A'                 
     freq (   5-   5) =        254.8  [cm-1]   --> A''                
     freq (   6-   6) =        271.3  [cm-1]   --> A''                
     freq (   7-   7) =        272.5  [cm-1]   --> A'                 
     freq (   8-   8) =        348.7  [cm-1]   --> A''                
     freq (   9-   9) =        388.8  [cm-1]   --> A'                 
 
     init_run     :      0.41s CPU      0.58s WALL (       2 calls)
     electrons    :    439.47s CPU    469.39s WALL (       2 calls)

     Called by init_run:
     wfcinit      :      0.00s CPU      0.00s WALL (       2 calls)
     potinit      :      0.03s CPU      0.19s WALL (       2 calls)
     hinit0       :      0.20s CPU      0.20s WALL (       2 calls)

     Called by electrons:
     c_bands      :    439.43s CPU    469.35s WALL (       2 calls)
     v_of_rho     :      0.04s CPU      0.04s WALL (       3 calls)

     Called by c_bands:
     init_us_2    :     29.36s CPU     30.99s WALL (  235584 calls)
     init_us_2:cp :     28.72s CPU     30.41s WALL (  235584 calls)
     cegterg      :    378.34s CPU    382.65s WALL (    3444 calls)

     Called by *egterg:
     cdiaghg      :    203.83s CPU    205.76s WALL (   49496 calls)
     h_psi        :   6689.10s CPU   6896.09s WALL ( 4301695 calls)
     g_psi        :      0.99s CPU      1.00s WALL (   47192 calls)

     Called by h_psi:
     h_psi:calbec :    313.42s CPU    323.04s WALL ( 4301695 calls)
     vloc_psi     :   6144.52s CPU   6334.72s WALL ( 4301695 calls)
     add_vuspsi   :    186.95s CPU    194.47s WALL ( 4301695 calls)

     General routines
     calbec       :    566.09s CPU    586.26s WALL ( 8603442 calls)
     fft          :      3.36s CPU      4.01s WALL (    4787 calls)
     ffts         :      3.25s CPU      3.33s WALL (   11264 calls)
     fftw         :   9432.83s CPU   9656.69s WALL (59746850 calls)
     interpolate  :      0.61s CPU      0.63s WALL (     734 calls)
     davcio       :     31.01s CPU    381.69s WALL ( 1081543 calls)
 
     Parallel routines
 
     PHONON       :      3h19m CPU      3h32m WALL

     INITIALIZATION: 
     phq_setup    :      0.07s CPU      0.35s WALL (       2 calls)
     phq_init     :      2.65s CPU      2.73s WALL (       2 calls)
 
     phq_init     :      2.65s CPU      2.73s WALL (       2 calls)
     init_vloc    :      0.17s CPU      0.17s WALL (       3 calls)
     init_us_1    :      0.10s CPU      0.10s WALL (       3 calls)
     init_us_2    :     29.36s CPU     30.99s WALL (  235584 calls)
 
     DYNAMICAL MATRIX:
     dynmat0      :      1.48s CPU      1.54s WALL (       2 calls)
     phqscf       :  11505.39s CPU  12270.78s WALL (       2 calls)
     dynmatrix    :      2.19s CPU      2.25s WALL (       2 calls)
 
     phqscf       :  11505.39s CPU  12270.78s WALL (       2 calls)
     solve_linter :  11498.82s CPU  12259.02s WALL (      18 calls)
     drhodv       :      6.54s CPU      6.86s WALL (      18 calls)
 
     dynmat0      :      1.48s CPU      1.54s WALL (       2 calls)
     dynmat_us    :      1.47s CPU      1.52s WALL (       2 calls)
     d2ionq       :      0.01s CPU      0.01s WALL (       2 calls)
 
     dynmat_us    :      1.47s CPU      1.52s WALL (       2 calls)
 
     phqscf       :  11505.39s CPU  12270.78s WALL (       2 calls)
     solve_linter :  11498.82s CPU  12259.02s WALL (      18 calls)
 
     solve_linter :  11498.82s CPU  12259.02s WALL (      18 calls)
     dvqpsi_us    :     38.44s CPU     39.80s WALL (   10368 calls)
     sth_kernel   :  11284.28s CPU  11891.14s WALL (     365 calls)
     apply_dpot_b :    440.86s CPU    464.39s WALL (  199872 calls)
     ortho        :     28.64s CPU     30.05s WALL (  210240 calls)
     cgsolve      :   7438.79s CPU   7671.93s WALL (  210240 calls)
     incdrhoscf   :   3295.49s CPU   3319.45s WALL (  210240 calls)
     dv_of_drho   :      3.85s CPU      4.73s WALL (     365 calls)
     mix_pot      :     47.08s CPU    118.48s WALL (     365 calls)
     psymdvscf    :     11.46s CPU     12.88s WALL (     365 calls)
 
     dvqpsi_us    :     38.44s CPU     39.80s WALL (   10368 calls)
     dvqpsi_us_on :      3.01s CPU      3.12s WALL (   10368 calls)
 
     cgsolve      :   7438.79s CPU   7671.93s WALL (  210240 calls)
     ch_psi       :   7197.19s CPU   7420.17s WALL ( 4248755 calls)
 
     ch_psi       :   7197.19s CPU   7420.17s WALL ( 4248755 calls)
     h_psi        :   6689.10s CPU   6896.09s WALL ( 4301695 calls)
     last         :    579.68s CPU    598.10s WALL ( 4248755 calls)
 
     h_psi        :   6689.10s CPU   6896.09s WALL ( 4301695 calls)
     add_vuspsi   :    186.95s CPU    194.47s WALL ( 4301695 calls)
 
     incdrhoscf   :   3295.49s CPU   3319.45s WALL (  210240 calls)
 
 
      General routines
     calbec       :    566.09s CPU    586.26s WALL ( 8603442 calls)
     fft          :      3.36s CPU      4.01s WALL (    4787 calls)
     ffts         :      3.25s CPU      3.33s WALL (   11264 calls)
     fftw         :   9432.83s CPU   9656.69s WALL (59746850 calls)
     davcio       :     31.01s CPU    381.69s WALL ( 1081543 calls)
     write_rec    :      0.33s CPU     82.71s WALL (     383 calls)
 
     PHONON       :      3h19m CPU      3h32m WALL

