Module for gcc 10.2:
(GNU C/C++/FORTRAN compilers v10.2.0) - loaded.
Module for OpenMPI 4.1.0-gcc10.2-infiniband loaded.

     Program PWSCF v.7.0 starts on 13Feb2022 at  9:40:23 

     This program is part of the open-source Quantum ESPRESSO suite
     for quantum simulation of materials; please cite
         "P. Giannozzi et al., J. Phys.:Condens. Matter 21 395502 (2009);
         "P. Giannozzi et al., J. Phys.:Condens. Matter 29 465901 (2017);
         "P. Giannozzi et al., J. Chem. Phys. 152 154105 (2020);
          URL http://www.quantum-espresso.org", 
     in publications or presentations arising from this work. More details at
     http://www.quantum-espresso.org/quote

     Parallel version (MPI), running on     1 processors

     MPI processes distributed on     1 nodes
     43062 MiB available memory on the printing compute node when the environment starts

     Reading input from in_files/kp_30.scf

     Current dimensions of program PWSCF are:
     Max number of different atomic species (ntypx) = 10
     Max number of k-points (npk) =  40000
     Max angular momentum in pseudopotentials (lmaxx) =  4

     Subspace diagonalization in iterative solution of the eigenvalue problem:
     a serial algorithm will be used


     G-vector sticks info
     --------------------
     sticks:   dense  smooth     PW     G-vecs:    dense   smooth      PW
     Sum         313     313    121                 3839     3839     821

     Using Slab Decomposition



     bravais-lattice index     =            2
     lattice parameter (alat)  =      10.2000  a.u.
     unit-cell volume          =     265.3020 (a.u.)^3
     number of atoms/cell      =            2
     number of atomic types    =            1
     number of electrons       =         8.00
     number of Kohn-Sham states=            4
     kinetic-energy cutoff     =      23.0000  Ry
     charge density cutoff     =      92.0000  Ry
     scf convergence threshold =      1.0E-12
     mixing beta               =       0.7000
     number of iterations used =            8  plain     mixing
     Exchange-correlation= PBE
                           (   1   4   3   4   0   0   0)

     celldm(1)=  10.200000  celldm(2)=   0.000000  celldm(3)=   0.000000
     celldm(4)=   0.000000  celldm(5)=   0.000000  celldm(6)=   0.000000

     crystal axes: (cart. coord. in units of alat)
               a(1) = (  -0.500000   0.000000   0.500000 )  
               a(2) = (   0.000000   0.500000   0.500000 )  
               a(3) = (  -0.500000   0.500000   0.000000 )  

     reciprocal axes: (cart. coord. in units 2 pi/alat)
               b(1) = ( -1.000000 -1.000000  1.000000 )  
               b(2) = (  1.000000  1.000000  1.000000 )  
               b(3) = ( -1.000000  1.000000 -1.000000 )  


     PseudoPot. # 1 for Si read from file:
     ./pseudos/Si_pbe_v0.4.1.nc.sr.upf
     MD5 check sum: 02fab3f35e82123ef5bf1cb05d5b1a5e
     Pseudo is Norm-conserving + core correction, Zval =  4.0
     Generated using ONCVPSP code by D. R. Hamann
     Using radial grid of 1510 points,  6 beta functions with: 
                l(1) =   0
                l(2) =   0
                l(3) =   1
                l(4) =   1
                l(5) =   2
                l(6) =   2

     atomic species   valence    mass     pseudopotential
        Si             4.00    28.08600     Si( 1.00)

     48 Sym. Ops., with inversion, found (24 have fractional translation)



   Cartesian axes

     site n.     atom                  positions (alat units)
         1           Si  tau(   1) = (   0.0000000   0.0000000   0.0000000  )
         2           Si  tau(   2) = (   0.2500000   0.2500000   0.2500000  )

     number of k points=   752

     Number of k-points >= 100: set verbosity='high' to print them.

     Dense  grid:     3839 G-vectors     FFT dimensions: (  24,  24,  24)

     Estimated max dynamical RAM per process >      26.42 MB

     Initial potential from superposition of free atoms

     starting charge       7.9988, renormalised to       8.0000
     Starting wfcs are    8 randomized atomic wfcs

     total cpu time spent up to now is        2.6 secs

     Self-consistent Calculation

     iteration #  1     ecut=    23.00 Ry     beta= 0.70
     Davidson diagonalization with overlap
     ethr =  1.00E-02,  avg # of iterations =  2.0

     Threshold (ethr) on eigenvalues was too large:
     Diagonalizing with lowered threshold

     Davidson diagonalization with overlap
     ethr =  5.90E-04,  avg # of iterations =  2.0

     total cpu time spent up to now is        9.8 secs

     total energy              =     -16.92073054 Ry
     estimated scf accuracy    <       0.05530772 Ry

     iteration #  2     ecut=    23.00 Ry     beta= 0.70
     Davidson diagonalization with overlap
     ethr =  6.91E-04,  avg # of iterations =  1.0

     total cpu time spent up to now is       12.7 secs

     total energy              =     -16.92241301 Ry
     estimated scf accuracy    <       0.00286920 Ry

     iteration #  3     ecut=    23.00 Ry     beta= 0.70
     Davidson diagonalization with overlap
     ethr =  3.59E-05,  avg # of iterations =  2.3

     total cpu time spent up to now is       16.6 secs

     total energy              =     -16.92303209 Ry
     estimated scf accuracy    <       0.00006632 Ry

     iteration #  4     ecut=    23.00 Ry     beta= 0.70
     Davidson diagonalization with overlap
     ethr =  8.29E-07,  avg # of iterations =  5.0

     total cpu time spent up to now is       21.9 secs

     total energy              =     -16.92311067 Ry
     estimated scf accuracy    <       0.00000025 Ry

     iteration #  5     ecut=    23.00 Ry     beta= 0.70
     Davidson diagonalization with overlap
     ethr =  3.09E-09,  avg # of iterations =  6.4

     total cpu time spent up to now is       28.4 secs

     total energy              =     -16.92311216 Ry
     estimated scf accuracy    <       0.00000002 Ry

     iteration #  6     ecut=    23.00 Ry     beta= 0.70
     Davidson diagonalization with overlap
     ethr =  2.84E-10,  avg # of iterations =  2.5

     total cpu time spent up to now is       32.4 secs

     total energy              =     -16.92311217 Ry
     estimated scf accuracy    <          5.1E-09 Ry

     iteration #  7     ecut=    23.00 Ry     beta= 0.70
     Davidson diagonalization with overlap
     ethr =  6.40E-11,  avg # of iterations =  2.3

     total cpu time spent up to now is       36.0 secs

     total energy              =     -16.92311217 Ry
     estimated scf accuracy    <          1.6E-10 Ry

     iteration #  8     ecut=    23.00 Ry     beta= 0.70
     Davidson diagonalization with overlap
     ethr =  2.00E-12,  avg # of iterations =  3.8

     total cpu time spent up to now is       40.5 secs

     total energy              =     -16.92311217 Ry
     estimated scf accuracy    <          4.1E-12 Ry

     iteration #  9     ecut=    23.00 Ry     beta= 0.70
     Davidson diagonalization with overlap
     ethr =  1.00E-13,  avg # of iterations =  3.6

     total cpu time spent up to now is       44.7 secs

     End of self-consistent calculation

     Number of k-points >= 100: set verbosity='high' to print the bands.

     highest occupied level (ev):     6.4252

!    total energy              =     -16.92311217 Ry
     estimated scf accuracy    <          8.3E-13 Ry

     The total energy is the sum of the following terms:
     one-electron contribution =       5.10175705 Ry
     hartree contribution      =       1.07881442 Ry
     xc contribution           =      -6.20392504 Ry
     ewald contribution        =     -16.89975860 Ry

     convergence has been achieved in   9 iterations

     Forces acting on atoms (cartesian axes, Ry/au):

     atom    1 type  1   force =     0.00000000    0.00000000    0.00000000
     atom    2 type  1   force =     0.00000000    0.00000000    0.00000000

     Total force =     0.000000     Total SCF correction =     0.000000


     Computing stress (Cartesian axis) and pressure

          total   stress  (Ry/bohr**3)                   (kbar)     P=       36.97
   0.00025132   0.00000000   0.00000000           36.97        0.00        0.00
   0.00000000   0.00025132  -0.00000000            0.00       36.97       -0.00
   0.00000000  -0.00000000   0.00025132            0.00       -0.00       36.97


     Writing all to output data dir /fastscratch/tsievers/QE_TMP_DIR/silicon_bench_singlecore_kpoints_30.save/

     init_run     :      2.45s CPU      2.51s WALL (       1 calls)
     electrons    :     41.38s CPU     42.23s WALL (       1 calls)
     forces       :      0.59s CPU      0.61s WALL (       1 calls)
     stress       :      2.36s CPU      2.37s WALL (       1 calls)

     Called by init_run:
     wfcinit      :      2.24s CPU      2.30s WALL (       1 calls)
     potinit      :      0.01s CPU      0.01s WALL (       1 calls)
     hinit0       :      0.17s CPU      0.17s WALL (       1 calls)

     Called by electrons:
     c_bands      :     36.61s CPU     37.33s WALL (      10 calls)
     sum_band     :      4.68s CPU      4.78s WALL (      10 calls)
     v_of_rho     :      0.08s CPU      0.08s WALL (      10 calls)
     mix_rho      :      0.01s CPU      0.01s WALL (      10 calls)

     Called by c_bands:
     init_us_2    :      2.95s CPU      3.01s WALL (   17296 calls)
     init_us_2:cp :      2.92s CPU      2.99s WALL (   17296 calls)
     cegterg      :     30.85s CPU     31.44s WALL (    7520 calls)

     Called by *egterg:
     cdiaghg      :      0.75s CPU      0.77s WALL (   29893 calls)
     h_psi        :     28.82s CPU     29.39s WALL (   31397 calls)
     g_psi        :      0.25s CPU      0.26s WALL (   23125 calls)

     Called by h_psi:
     h_psi:calbec :      2.74s CPU      2.79s WALL (   31397 calls)
     vloc_psi     :     22.98s CPU     23.43s WALL (   31397 calls)
     add_vuspsi   :      2.88s CPU      2.94s WALL (   31397 calls)

     General routines
     calbec       :      3.09s CPU      3.15s WALL (   35157 calls)
     fft          :      0.13s CPU      0.14s WALL (     125 calls)
     ffts         :      0.00s CPU      0.00s WALL (      10 calls)
     fftw         :     22.79s CPU     23.27s WALL (  239894 calls)

     Parallel routines

     PWSCF        :     46.92s CPU     54.49s WALL


   This run was terminated on:   9:41:17  13Feb2022            

=------------------------------------------------------------------------------=
   JOB DONE.
=------------------------------------------------------------------------------=
