Module for gcc 10.2:
(GNU C/C++/FORTRAN compilers v10.2.0) - loaded.
Module for OpenMPI 4.1.0-gcc10.2-infiniband loaded.

     Program PWSCF v.7.0 starts on 11Feb2022 at 20:46:23 

     This program is part of the open-source Quantum ESPRESSO suite
     for quantum simulation of materials; please cite
         "P. Giannozzi et al., J. Phys.:Condens. Matter 21 395502 (2009);
         "P. Giannozzi et al., J. Phys.:Condens. Matter 29 465901 (2017);
         "P. Giannozzi et al., J. Chem. Phys. 152 154105 (2020);
          URL http://www.quantum-espresso.org", 
     in publications or presentations arising from this work. More details at
     http://www.quantum-espresso.org/quote

     Parallel version (MPI), running on    14 processors

     MPI processes distributed on     1 nodes
     R & G space division:  proc/nbgrp/npool/nimage =      14
     57339 MiB available memory on the printing compute node when the environment starts

     Reading input from in_files/TaS2_bench_14.scf

     Current dimensions of program PWSCF are:
     Max number of different atomic species (ntypx) = 10
     Max number of k-points (npk) =  40000
     Max angular momentum in pseudopotentials (lmaxx) =  4

     Subspace diagonalization in iterative solution of the eigenvalue problem:
     a serial algorithm will be used


     Parallelization info
     --------------------
     sticks:   dense  smooth     PW     G-vecs:    dense   smooth      PW
     Min          77      39     11                 9421     3337     539
     Max          79      40     12                 9434     3344     554
     Sum        1099     559    163               132031    46753    7647

     Using Slab Decomposition



     bravais-lattice index     =            4
     lattice parameter (alat)  =       6.3117  a.u.
     unit-cell volume          =     977.9382 (a.u.)^3
     number of atoms/cell      =            3
     number of atomic types    =            2
     number of electrons       =        25.00
     number of Kohn-Sham states=           17
     kinetic-energy cutoff     =      50.0000  Ry
     charge density cutoff     =     400.0000  Ry
     scf convergence threshold =      1.0E-18
     mixing beta               =       0.7000
     number of iterations used =            8  plain     mixing
     Exchange-correlation=  SLA  PW   PBX  PBC
                           (   1   4   3   4   0   0   0)

     celldm(1)=   6.311685  celldm(2)=   0.000000  celldm(3)=   4.491018
     celldm(4)=   0.000000  celldm(5)=   0.000000  celldm(6)=   0.000000

     crystal axes: (cart. coord. in units of alat)
               a(1) = (   1.000000   0.000000   0.000000 )  
               a(2) = (  -0.500000   0.866025   0.000000 )  
               a(3) = (   0.000000   0.000000   4.491018 )  

     reciprocal axes: (cart. coord. in units 2 pi/alat)
               b(1) = (  1.000000  0.577350 -0.000000 )  
               b(2) = (  0.000000  1.154701  0.000000 )  
               b(3) = (  0.000000 -0.000000  0.222667 )  


     PseudoPot. # 1 for Ta read from file:
     ./pseudos/Ta_pbe_v1.uspp.F.UPF
     MD5 check sum: f8bbe9446314a3b8ea5d9f3e3836c939
     Pseudo is Ultrasoft + core correction, Zval = 13.0
     Generated by new atomic code, or converted to UPF format
     Using radial grid of  921 points,  7 beta functions with: 
                l(1) =   0
                l(2) =   0
                l(3) =   1
                l(4) =   1
                l(5) =   2
                l(6) =   2
                l(7) =   3
     Q(r) pseudized with  6 coefficients,  rinner =    1.300   1.300   1.300
                                                       1.300   1.300   1.300
                                                       1.300

     PseudoPot. # 2 for S  read from file:
     ./pseudos/s_pbe_v1.4.uspp.F.UPF
     MD5 check sum: 88d86576ff6df21479756cfb9bdac1df
     Pseudo is Ultrasoft + core correction, Zval =  6.0
     Generated by new atomic code, or converted to UPF format
     Using radial grid of  907 points,  6 beta functions with: 
                l(1) =   0
                l(2) =   0
                l(3) =   1
                l(4) =   1
                l(5) =   2
                l(6) =   2
     Q(r) pseudized with  8 coefficients,  rinner =    1.300   1.300   1.300
                                                       1.300   1.300

     atomic species   valence    mass     pseudopotential
        Ta            13.00   180.95000     Ta( 1.00)
        S              6.00    32.06000     S ( 1.00)

     12 Sym. Ops. (no inversion) found



   Cartesian axes

     site n.     atom                  positions (alat units)
         1           S   tau(   1) = (  -0.0000000   0.5773503   0.4679075  )
         2           Ta  tau(   2) = (   0.0000000   0.0000000   0.0000000  )
         3           S   tau(   3) = (  -0.0000000   0.5773503  -0.4679075  )

     number of k points=   217  Marzari-Vanderbilt smearing, width (Ry)=  0.0020

     Number of k-points >= 100: set verbosity='high' to print them.

     Dense  grid:   132031 G-vectors     FFT dimensions: (  45,  45, 192)

     Smooth grid:    46753 G-vectors     FFT dimensions: (  30,  30, 128)

     Estimated max dynamical RAM per process >      86.96 MB

     Estimated total dynamical RAM >       1.19 GB
 ----2D----2D----2D----2D----2D----2D----2D----2D----2D----2D----2D----2D
  The code is running with the 2D cutoff
  Please refer to:
  Sohier, T., Calandra, M., & Mauri, F. (2017), 
  Density functional perturbation theory for gated two-dimensional heterostructures:
  Theoretical developments and application to flexural phonons in graphene.
  Physical Review B, 96(7), 75448. https://doi.org/10.1103/PhysRevB.96.075448
 ----2D----2D----2D----2D----2D----2D----2D----2D----2D----2D----2D----2D

     Initial potential from superposition of free atoms

     starting charge      24.9988, renormalised to      25.0000

     negative rho (up, down):  9.496E-02 0.000E+00
     Starting wfcs are   21 randomized atomic wfcs

     total cpu time spent up to now is        3.6 secs

     Self-consistent Calculation

     iteration #  1     ecut=    50.00 Ry     beta= 0.70
     Davidson diagonalization with overlap
     ethr =  1.00E-02,  avg # of iterations =  3.1

     Threshold (ethr) on eigenvalues was too large:
     Diagonalizing with lowered threshold

     Davidson diagonalization with overlap
     ethr =  5.45E-04,  avg # of iterations =  2.9

     negative rho (up, down):  9.869E-02 0.000E+00

     total cpu time spent up to now is       16.0 secs

     total energy              =    -190.25445727 Ry
     estimated scf accuracy    <       0.14562422 Ry

     iteration #  2     ecut=    50.00 Ry     beta= 0.70
     Davidson diagonalization with overlap
     ethr =  5.82E-04,  avg # of iterations =  2.1

     negative rho (up, down):  9.950E-02 0.000E+00

     total cpu time spent up to now is       22.7 secs

     total energy              =    -190.22256980 Ry
     estimated scf accuracy    <       0.38205555 Ry

     iteration #  3     ecut=    50.00 Ry     beta= 0.70
     Davidson diagonalization with overlap
     ethr =  5.82E-04,  avg # of iterations =  2.0

     negative rho (up, down):  1.002E-01 0.000E+00

     total cpu time spent up to now is       28.8 secs

     total energy              =    -190.30428622 Ry
     estimated scf accuracy    <       0.05114162 Ry

     iteration #  4     ecut=    50.00 Ry     beta= 0.70
     Davidson diagonalization with overlap
     ethr =  2.05E-04,  avg # of iterations =  2.0

     negative rho (up, down):  1.010E-01 0.000E+00

     total cpu time spent up to now is       34.3 secs

     total energy              =    -190.31090365 Ry
     estimated scf accuracy    <       0.00103833 Ry

     iteration #  5     ecut=    50.00 Ry     beta= 0.70
     Davidson diagonalization with overlap
     ethr =  4.15E-06,  avg # of iterations =  4.7

     negative rho (up, down):  1.010E-01 0.000E+00

     total cpu time spent up to now is       42.6 secs

     total energy              =    -190.31142550 Ry
     estimated scf accuracy    <       0.00062141 Ry

     iteration #  6     ecut=    50.00 Ry     beta= 0.70
     Davidson diagonalization with overlap
     ethr =  2.49E-06,  avg # of iterations =  2.0

     negative rho (up, down):  1.011E-01 0.000E+00

     total cpu time spent up to now is       48.2 secs

     total energy              =    -190.31146149 Ry
     estimated scf accuracy    <       0.00005214 Ry

     iteration #  7     ecut=    50.00 Ry     beta= 0.70
     Davidson diagonalization with overlap
     ethr =  2.09E-07,  avg # of iterations =  3.6

     negative rho (up, down):  1.011E-01 0.000E+00

     total cpu time spent up to now is       54.8 secs

     total energy              =    -190.31148276 Ry
     estimated scf accuracy    <       0.00000737 Ry

     iteration #  8     ecut=    50.00 Ry     beta= 0.70
     Davidson diagonalization with overlap
     ethr =  2.95E-08,  avg # of iterations =  2.8

     negative rho (up, down):  1.011E-01 0.000E+00

     total cpu time spent up to now is       61.2 secs

     total energy              =    -190.31148502 Ry
     estimated scf accuracy    <       0.00000005 Ry

     iteration #  9     ecut=    50.00 Ry     beta= 0.70
     Davidson diagonalization with overlap
     ethr =  2.14E-10,  avg # of iterations =  6.7

     negative rho (up, down):  1.011E-01 0.000E+00

     total cpu time spent up to now is       73.3 secs

     total energy              =    -190.31148512 Ry
     estimated scf accuracy    <       0.00000043 Ry

     iteration # 10     ecut=    50.00 Ry     beta= 0.70
     Davidson diagonalization with overlap
     ethr =  2.14E-10,  avg # of iterations =  3.0

     negative rho (up, down):  1.011E-01 0.000E+00

     total cpu time spent up to now is       80.0 secs

     total energy              =    -190.31148519 Ry
     estimated scf accuracy    <          1.7E-09 Ry

     iteration # 11     ecut=    50.00 Ry     beta= 0.70
     Davidson diagonalization with overlap
     ethr =  6.93E-12,  avg # of iterations =  4.3

     negative rho (up, down):  1.011E-01 0.000E+00

     total cpu time spent up to now is       88.4 secs

     total energy              =    -190.31148518 Ry
     estimated scf accuracy    <       0.00000004 Ry

     iteration # 12     ecut=    50.00 Ry     beta= 0.70
     Davidson diagonalization with overlap
     ethr =  6.93E-12,  avg # of iterations =  3.7

     negative rho (up, down):  1.011E-01 0.000E+00

     total cpu time spent up to now is       95.9 secs

     total energy              =    -190.31148519 Ry
     estimated scf accuracy    <          3.7E-10 Ry

     iteration # 13     ecut=    50.00 Ry     beta= 0.70
     Davidson diagonalization with overlap
     ethr =  1.48E-12,  avg # of iterations =  2.8

     negative rho (up, down):  1.011E-01 0.000E+00

     total cpu time spent up to now is      102.2 secs

     total energy              =    -190.31148519 Ry
     estimated scf accuracy    <          2.2E-11 Ry

     iteration # 14     ecut=    50.00 Ry     beta= 0.70
     Davidson diagonalization with overlap
     ethr =  1.00E-13,  avg # of iterations =  2.8

     negative rho (up, down):  1.011E-01 0.000E+00

     total cpu time spent up to now is      108.5 secs

     total energy              =    -190.31148519 Ry
     estimated scf accuracy    <          2.4E-12 Ry

     iteration # 15     ecut=    50.00 Ry     beta= 0.70
     Davidson diagonalization with overlap
     ethr =  1.00E-13,  avg # of iterations =  1.8

     negative rho (up, down):  1.011E-01 0.000E+00

     total cpu time spent up to now is      113.8 secs

     total energy              =    -190.31148519 Ry
     estimated scf accuracy    <          7.1E-13 Ry

     iteration # 16     ecut=    50.00 Ry     beta= 0.70
     Davidson diagonalization with overlap
     ethr =  1.00E-13,  avg # of iterations =  1.0

     negative rho (up, down):  1.011E-01 0.000E+00

     total cpu time spent up to now is      118.8 secs

     total energy              =    -190.31148519 Ry
     estimated scf accuracy    <          6.5E-14 Ry

     iteration # 17     ecut=    50.00 Ry     beta= 0.70
     Davidson diagonalization with overlap
     ethr =  1.00E-13,  avg # of iterations =  1.0

     negative rho (up, down):  1.011E-01 0.000E+00

     total cpu time spent up to now is      123.7 secs

     total energy              =    -190.31148519 Ry
     estimated scf accuracy    <          1.8E-14 Ry

     iteration # 18     ecut=    50.00 Ry     beta= 0.70
     Davidson diagonalization with overlap
     ethr =  1.00E-13,  avg # of iterations =  1.0

     negative rho (up, down):  1.011E-01 0.000E+00

     total cpu time spent up to now is      128.6 secs

     total energy              =    -190.31148519 Ry
     estimated scf accuracy    <          1.7E-16 Ry

     iteration # 19     ecut=    50.00 Ry     beta= 0.70
     Davidson diagonalization with overlap
     ethr =  1.00E-13,  avg # of iterations =  1.0

     negative rho (up, down):  1.011E-01 0.000E+00

     total cpu time spent up to now is      133.6 secs

     total energy              =    -190.31148519 Ry
     estimated scf accuracy    <          3.0E-15 Ry

     iteration # 20     ecut=    50.00 Ry     beta= 0.70
     Davidson diagonalization with overlap
     ethr =  1.00E-13,  avg # of iterations =  1.0

     negative rho (up, down):  1.011E-01 0.000E+00

     total cpu time spent up to now is      138.5 secs

     total energy              =    -190.31148519 Ry
     estimated scf accuracy    <          1.1E-15 Ry

     iteration # 21     ecut=    50.00 Ry     beta= 0.70
     Davidson diagonalization with overlap
     ethr =  1.00E-13,  avg # of iterations =  1.0

     negative rho (up, down):  1.011E-01 0.000E+00

     total cpu time spent up to now is      143.5 secs

     total energy              =    -190.31148519 Ry
     estimated scf accuracy    <          3.8E-15 Ry

     iteration # 22     ecut=    50.00 Ry     beta= 0.70
     Davidson diagonalization with overlap
     ethr =  1.00E-13,  avg # of iterations =  1.0

     negative rho (up, down):  1.011E-01 0.000E+00

     total cpu time spent up to now is      148.4 secs

     total energy              =    -190.31148519 Ry
     estimated scf accuracy    <          2.5E-15 Ry

     iteration # 23     ecut=    50.00 Ry     beta= 0.70
     Davidson diagonalization with overlap
     ethr =  1.00E-13,  avg # of iterations =  1.0

     negative rho (up, down):  1.011E-01 0.000E+00

     total cpu time spent up to now is      153.4 secs

     total energy              =    -190.31148519 Ry
     estimated scf accuracy    <          6.6E-16 Ry

     iteration # 24     ecut=    50.00 Ry     beta= 0.70
     Davidson diagonalization with overlap
     ethr =  1.00E-13,  avg # of iterations =  1.0

     negative rho (up, down):  1.011E-01 0.000E+00

     total cpu time spent up to now is      158.3 secs

     total energy              =    -190.31148519 Ry
     estimated scf accuracy    <          6.7E-16 Ry

     iteration # 25     ecut=    50.00 Ry     beta= 0.70
     Davidson diagonalization with overlap
     ethr =  1.00E-13,  avg # of iterations =  1.0

     negative rho (up, down):  1.011E-01 0.000E+00

     total cpu time spent up to now is      163.2 secs

     total energy              =    -190.31148519 Ry
     estimated scf accuracy    <          5.1E-16 Ry

     iteration # 26     ecut=    50.00 Ry     beta= 0.70
     Davidson diagonalization with overlap
     ethr =  1.00E-13,  avg # of iterations =  1.0

     negative rho (up, down):  1.011E-01 0.000E+00

     total cpu time spent up to now is      168.2 secs

     total energy              =    -190.31148519 Ry
     estimated scf accuracy    <          5.9E-16 Ry

     iteration # 27     ecut=    50.00 Ry     beta= 0.70
     Davidson diagonalization with overlap
     ethr =  1.00E-13,  avg # of iterations =  1.0

     negative rho (up, down):  1.011E-01 0.000E+00

     total cpu time spent up to now is      173.1 secs

     total energy              =    -190.31148519 Ry
     estimated scf accuracy    <          5.0E-16 Ry

     iteration # 28     ecut=    50.00 Ry     beta= 0.70
     Davidson diagonalization with overlap
     ethr =  1.00E-13,  avg # of iterations =  1.0

     negative rho (up, down):  1.011E-01 0.000E+00

     total cpu time spent up to now is      178.1 secs

     total energy              =    -190.31148519 Ry
     estimated scf accuracy    <          1.4E-17 Ry

     iteration # 29     ecut=    50.00 Ry     beta= 0.70
     Davidson diagonalization with overlap
     ethr =  1.00E-13,  avg # of iterations =  1.0

     negative rho (up, down):  1.011E-01 0.000E+00

     total cpu time spent up to now is      185.4 secs

     total energy              =    -190.31148519 Ry
     estimated scf accuracy    <          1.6E-17 Ry

     iteration # 30     ecut=    50.00 Ry     beta= 0.70
     Davidson diagonalization with overlap
     ethr =  1.00E-13,  avg # of iterations =  1.0

     negative rho (up, down):  1.011E-01 0.000E+00

     total cpu time spent up to now is      190.3 secs

     total energy              =    -190.31148519 Ry
     estimated scf accuracy    <          3.1E-18 Ry

     iteration # 31     ecut=    50.00 Ry     beta= 0.70
     Davidson diagonalization with overlap
     ethr =  1.00E-13,  avg # of iterations =  1.0

     negative rho (up, down):  1.011E-01 0.000E+00

     total cpu time spent up to now is      195.3 secs

     End of self-consistent calculation

     Number of k-points >= 100: set verbosity='high' to print the bands.

     the Fermi energy is    -5.9182 ev

!    total energy              =    -190.31148519 Ry
     estimated scf accuracy    <          2.0E-19 Ry
     smearing contrib. (-TS)   =       0.00000705 Ry
     internal energy E=F+TS    =    -190.31149224 Ry

     The total energy is F=E-TS. E is the sum of the following terms:
     one-electron contribution =   -1044.74925538 Ry
     hartree contribution      =     517.61800544 Ry
     xc contribution           =     -59.14415725 Ry
     ewald contribution        =     395.96391495 Ry

     convergence has been achieved in  31 iterations

     Writing all to output data dir /fastscratch/tsievers/QE_TMP_DIR/TaS2_bench_nprocs_48x48_14.save/

     init_run     :      3.29s CPU      3.36s WALL (       1 calls)
     electrons    :    184.81s CPU    191.72s WALL (       1 calls)

     Called by init_run:
     wfcinit      :      2.28s CPU      2.31s WALL (       1 calls)
     potinit      :      0.26s CPU      0.26s WALL (       1 calls)
     hinit0       :      0.56s CPU      0.56s WALL (       1 calls)

     Called by electrons:
     c_bands      :    153.88s CPU    158.69s WALL (      32 calls)
     sum_band     :     26.75s CPU     27.97s WALL (      32 calls)
     v_of_rho     :      0.67s CPU      0.70s WALL (      32 calls)
     newd         :      3.50s CPU      4.36s WALL (      32 calls)
     mix_rho      :      0.08s CPU      0.08s WALL (      32 calls)

     Called by c_bands:
     init_us_2    :      4.54s CPU      4.62s WALL (   14105 calls)
     init_us_2:cp :      4.50s CPU      4.60s WALL (   14105 calls)
     cegterg      :    142.87s CPU    145.09s WALL (    6944 calls)

     Called by *egterg:
     cdiaghg      :      8.23s CPU      8.31s WALL (   21113 calls)
     h_psi        :     95.33s CPU     97.09s WALL (   21547 calls)
     s_psi        :     13.12s CPU     13.34s WALL (   21547 calls)
     g_psi        :      0.59s CPU      0.59s WALL (   14386 calls)

     Called by h_psi:
     h_psi:calbec :     13.41s CPU     13.70s WALL (   21547 calls)
     vloc_psi     :     68.51s CPU     69.71s WALL (   21547 calls)
     add_vuspsi   :     13.04s CPU     13.30s WALL (   21547 calls)

     General routines
     calbec       :     18.81s CPU     19.22s WALL (   28491 calls)
     fft          :      0.64s CPU      0.65s WALL (     415 calls)
     ffts         :      0.12s CPU      0.12s WALL (      64 calls)
     fftw         :     75.18s CPU     76.57s WALL (  692652 calls)
     interpolate  :      0.14s CPU      0.14s WALL (      32 calls)

     Parallel routines

     PWSCF        :   3m 8.79s CPU   3m23.94s WALL


   This run was terminated on:  20:49:47  11Feb2022            

=------------------------------------------------------------------------------=
   JOB DONE.
=------------------------------------------------------------------------------=
