Module for gcc 10.2:
(GNU C/C++/FORTRAN compilers v10.2.0) - loaded.
Module for OpenMPI 4.1.0-gcc10.2-infiniband loaded.

     Program PWSCF v.7.0 starts on 12Feb2022 at  9:23:44 

     This program is part of the open-source Quantum ESPRESSO suite
     for quantum simulation of materials; please cite
         "P. Giannozzi et al., J. Phys.:Condens. Matter 21 395502 (2009);
         "P. Giannozzi et al., J. Phys.:Condens. Matter 29 465901 (2017);
         "P. Giannozzi et al., J. Chem. Phys. 152 154105 (2020);
          URL http://www.quantum-espresso.org", 
     in publications or presentations arising from this work. More details at
     http://www.quantum-espresso.org/quote

     Parallel version (MPI), running on    20 processors

     MPI processes distributed on     2 nodes
     R & G space division:  proc/nbgrp/npool/nimage =      20
     54705 MiB available memory on the printing compute node when the environment starts

     Reading input from in_files/si_conv_kpoints_42.scf

     Current dimensions of program PWSCF are:
     Max number of different atomic species (ntypx) = 10
     Max number of k-points (npk) =  40000
     Max angular momentum in pseudopotentials (lmaxx) =  4

     Subspace diagonalization in iterative solution of the eigenvalue problem:
     a serial algorithm will be used


     Parallelization info
     --------------------
     sticks:   dense  smooth     PW     G-vecs:    dense   smooth      PW
     Min          36      36     11                  630      630     110
     Max          37      37     12                  632      632     113
     Sum         721     721    223                12627    12627    2229

     Using Slab Decomposition



     bravais-lattice index     =            2
     lattice parameter (alat)  =      10.2000  a.u.
     unit-cell volume          =     265.3020 (a.u.)^3
     number of atoms/cell      =            2
     number of atomic types    =            1
     number of electrons       =         8.00
     number of Kohn-Sham states=            4
     kinetic-energy cutoff     =      50.0000  Ry
     charge density cutoff     =     200.0000  Ry
     scf convergence threshold =      1.0E-12
     mixing beta               =       0.7000
     number of iterations used =            8  plain     mixing
     Exchange-correlation= PBE
                           (   1   4   3   4   0   0   0)

     celldm(1)=  10.200000  celldm(2)=   0.000000  celldm(3)=   0.000000
     celldm(4)=   0.000000  celldm(5)=   0.000000  celldm(6)=   0.000000

     crystal axes: (cart. coord. in units of alat)
               a(1) = (  -0.500000   0.000000   0.500000 )  
               a(2) = (   0.000000   0.500000   0.500000 )  
               a(3) = (  -0.500000   0.500000   0.000000 )  

     reciprocal axes: (cart. coord. in units 2 pi/alat)
               b(1) = ( -1.000000 -1.000000  1.000000 )  
               b(2) = (  1.000000  1.000000  1.000000 )  
               b(3) = ( -1.000000  1.000000 -1.000000 )  


     PseudoPot. # 1 for Si read from file:
     ./pseudos/Si_pbe_v0.4.1.nc.sr.upf
     MD5 check sum: 02fab3f35e82123ef5bf1cb05d5b1a5e
     Pseudo is Norm-conserving + core correction, Zval =  4.0
     Generated using ONCVPSP code by D. R. Hamann
     Using radial grid of 1510 points,  6 beta functions with: 
                l(1) =   0
                l(2) =   0
                l(3) =   1
                l(4) =   1
                l(5) =   2
                l(6) =   2

     atomic species   valence    mass     pseudopotential
        Si             4.00    28.08600     Si( 1.00)

     48 Sym. Ops., with inversion, found (24 have fractional translation)



   Cartesian axes

     site n.     atom                  positions (alat units)
         1           Si  tau(   1) = (   0.0000000   0.0000000   0.0000000  )
         2           Si  tau(   2) = (   0.2500000   0.2500000   0.2500000  )

     number of k points=  1903

     Number of k-points >= 100: set verbosity='high' to print them.

     Dense  grid:    12627 G-vectors     FFT dimensions: (  36,  36,  36)

     Estimated max dynamical RAM per process >      10.82 MB

     Estimated total dynamical RAM >     216.50 MB

     Initial potential from superposition of free atoms

     starting charge       7.9988, renormalised to       8.0000
     Starting wfcs are    8 randomized atomic wfcs

     total cpu time spent up to now is       23.9 secs

     Self-consistent Calculation

     iteration #  1     ecut=    50.00 Ry     beta= 0.70
     Davidson diagonalization with overlap
     ethr =  1.00E-02,  avg # of iterations =  2.0

     Threshold (ethr) on eigenvalues was too large:
     Diagonalizing with lowered threshold

     Davidson diagonalization with overlap
     ethr =  5.87E-04,  avg # of iterations =  2.0

     total cpu time spent up to now is      169.9 secs

     total energy              =     -16.92147575 Ry
     estimated scf accuracy    <       0.05534707 Ry

     iteration #  2     ecut=    50.00 Ry     beta= 0.70
     Davidson diagonalization with overlap
     ethr =  6.92E-04,  avg # of iterations =  1.0

     total cpu time spent up to now is      231.7 secs

     total energy              =     -16.92318929 Ry
     estimated scf accuracy    <       0.00290019 Ry

     iteration #  3     ecut=    50.00 Ry     beta= 0.70
     Davidson diagonalization with overlap
     ethr =  3.63E-05,  avg # of iterations =  2.3

     total cpu time spent up to now is      312.9 secs

     total energy              =     -16.92385523 Ry
     estimated scf accuracy    <       0.00006608 Ry

     iteration #  4     ecut=    50.00 Ry     beta= 0.70
     Davidson diagonalization with overlap
     ethr =  8.26E-07,  avg # of iterations =  5.1

     total cpu time spent up to now is      442.4 secs

     total energy              =     -16.92393923 Ry
     estimated scf accuracy    <       0.00000025 Ry

     iteration #  5     ecut=    50.00 Ry     beta= 0.70
     Davidson diagonalization with overlap
     ethr =  3.18E-09,  avg # of iterations =  6.6

     total cpu time spent up to now is      596.3 secs

     total energy              =     -16.92394096 Ry
     estimated scf accuracy    <          9.0E-09 Ry

     iteration #  6     ecut=    50.00 Ry     beta= 0.70
     Davidson diagonalization with overlap
     ethr =  1.13E-10,  avg # of iterations =  3.5

     total cpu time spent up to now is      696.2 secs

     total energy              =     -16.92394097 Ry
     estimated scf accuracy    <          8.6E-10 Ry

     iteration #  7     ecut=    50.00 Ry     beta= 0.70
     Davidson diagonalization with overlap
     ethr =  1.07E-11,  avg # of iterations =  3.3

     total cpu time spent up to now is      794.4 secs

     total energy              =     -16.92394097 Ry
     estimated scf accuracy    <          1.6E-10 Ry

     iteration #  8     ecut=    50.00 Ry     beta= 0.70
     Davidson diagonalization with overlap
     ethr =  1.94E-12,  avg # of iterations =  2.3

     total cpu time spent up to now is      877.2 secs

     End of self-consistent calculation

     Number of k-points >= 100: set verbosity='high' to print the bands.

     highest occupied level (ev):     6.4228

!    total energy              =     -16.92394097 Ry
     estimated scf accuracy    <          1.1E-13 Ry

     The total energy is the sum of the following terms:
     one-electron contribution =       5.10087698 Ry
     hartree contribution      =       1.07923799 Ry
     xc contribution           =      -6.20429733 Ry
     ewald contribution        =     -16.89975861 Ry

     convergence has been achieved in   8 iterations

     Writing all to output data dir /fastscratch/tsievers/QE_TMP_DIR/silicon_conv_kpoints_42.save/

     init_run     :      7.82s CPU     23.61s WALL (       1 calls)
     electrons    :    264.38s CPU    853.41s WALL (       1 calls)

     Called by init_run:
     wfcinit      :      7.65s CPU     23.24s WALL (       1 calls)
     potinit      :      0.01s CPU      0.02s WALL (       1 calls)
     hinit0       :      0.15s CPU      0.30s WALL (       1 calls)

     Called by electrons:
     c_bands      :    237.94s CPU    767.53s WALL (       9 calls)
     sum_band     :     26.33s CPU     85.50s WALL (       9 calls)
     v_of_rho     :      0.04s CPU      0.13s WALL (       9 calls)
     mix_rho      :      0.02s CPU      0.07s WALL (       9 calls)

     Called by c_bands:
     init_us_2    :      0.98s CPU      2.89s WALL (   36157 calls)
     init_us_2:cp :      0.93s CPU      2.76s WALL (   36157 calls)
     cegterg      :    228.70s CPU    739.23s WALL (   17127 calls)

     Called by *egterg:
     cdiaghg      :      1.73s CPU      4.81s WALL (   68610 calls)
     h_psi        :    182.13s CPU    589.97s WALL (   72416 calls)
     g_psi        :      0.10s CPU      0.30s WALL (   53386 calls)

     Called by h_psi:
     h_psi:calbec :     30.16s CPU     93.63s WALL (   72416 calls)
     vloc_psi     :    150.54s CPU    492.38s WALL (   72416 calls)
     add_vuspsi   :      1.12s CPU      3.14s WALL (   72416 calls)

     General routines
     calbec       :     30.06s CPU     93.42s WALL (   72416 calls)
     fft          :      0.15s CPU      0.36s WALL (      91 calls)
     ffts         :      0.00s CPU      0.00s WALL (       9 calls)
     fftw         :    174.87s CPU    571.98s WALL (  560664 calls)

     Parallel routines

     PWSCF        :   5m24.33s CPU  17m47.72s WALL


   This run was terminated on:   9:41:32  12Feb2022            

=------------------------------------------------------------------------------=
   JOB DONE.
=------------------------------------------------------------------------------=
