Module for gcc 10.2:
(GNU C/C++/FORTRAN compilers v10.2.0) - loaded.
Module for OpenMPI 4.1.0-gcc10.2-infiniband loaded.

     Program PWSCF v.7.0 starts on 12Feb2022 at  9:12:44 

     This program is part of the open-source Quantum ESPRESSO suite
     for quantum simulation of materials; please cite
         "P. Giannozzi et al., J. Phys.:Condens. Matter 21 395502 (2009);
         "P. Giannozzi et al., J. Phys.:Condens. Matter 29 465901 (2017);
         "P. Giannozzi et al., J. Chem. Phys. 152 154105 (2020);
          URL http://www.quantum-espresso.org", 
     in publications or presentations arising from this work. More details at
     http://www.quantum-espresso.org/quote

     Parallel version (MPI), running on    20 processors

     MPI processes distributed on     2 nodes
     R & G space division:  proc/nbgrp/npool/nimage =      20
     52741 MiB available memory on the printing compute node when the environment starts

     Reading input from in_files/si_conv_kpoints_22.scf

     Current dimensions of program PWSCF are:
     Max number of different atomic species (ntypx) = 10
     Max number of k-points (npk) =  40000
     Max angular momentum in pseudopotentials (lmaxx) =  4

     Subspace diagonalization in iterative solution of the eigenvalue problem:
     a serial algorithm will be used


     Parallelization info
     --------------------
     sticks:   dense  smooth     PW     G-vecs:    dense   smooth      PW
     Min          36      36     11                  630      630     110
     Max          37      37     12                  632      632     113
     Sum         721     721    223                12627    12627    2229

     Using Slab Decomposition



     bravais-lattice index     =            2
     lattice parameter (alat)  =      10.2000  a.u.
     unit-cell volume          =     265.3020 (a.u.)^3
     number of atoms/cell      =            2
     number of atomic types    =            1
     number of electrons       =         8.00
     number of Kohn-Sham states=            4
     kinetic-energy cutoff     =      50.0000  Ry
     charge density cutoff     =     200.0000  Ry
     scf convergence threshold =      1.0E-12
     mixing beta               =       0.7000
     number of iterations used =            8  plain     mixing
     Exchange-correlation= PBE
                           (   1   4   3   4   0   0   0)

     celldm(1)=  10.200000  celldm(2)=   0.000000  celldm(3)=   0.000000
     celldm(4)=   0.000000  celldm(5)=   0.000000  celldm(6)=   0.000000

     crystal axes: (cart. coord. in units of alat)
               a(1) = (  -0.500000   0.000000   0.500000 )  
               a(2) = (   0.000000   0.500000   0.500000 )  
               a(3) = (  -0.500000   0.500000   0.000000 )  

     reciprocal axes: (cart. coord. in units 2 pi/alat)
               b(1) = ( -1.000000 -1.000000  1.000000 )  
               b(2) = (  1.000000  1.000000  1.000000 )  
               b(3) = ( -1.000000  1.000000 -1.000000 )  


     PseudoPot. # 1 for Si read from file:
     ./pseudos/Si_pbe_v0.4.1.nc.sr.upf
     MD5 check sum: 02fab3f35e82123ef5bf1cb05d5b1a5e
     Pseudo is Norm-conserving + core correction, Zval =  4.0
     Generated using ONCVPSP code by D. R. Hamann
     Using radial grid of 1510 points,  6 beta functions with: 
                l(1) =   0
                l(2) =   0
                l(3) =   1
                l(4) =   1
                l(5) =   2
                l(6) =   2

     atomic species   valence    mass     pseudopotential
        Si             4.00    28.08600     Si( 1.00)

     48 Sym. Ops., with inversion, found (24 have fractional translation)



   Cartesian axes

     site n.     atom                  positions (alat units)
         1           Si  tau(   1) = (   0.0000000   0.0000000   0.0000000  )
         2           Si  tau(   2) = (   0.2500000   0.2500000   0.2500000  )

     number of k points=   328

     Number of k-points >= 100: set verbosity='high' to print them.

     Dense  grid:    12627 G-vectors     FFT dimensions: (  36,  36,  36)

     Estimated max dynamical RAM per process >       3.23 MB

     Estimated total dynamical RAM >      64.61 MB

     Initial potential from superposition of free atoms

     starting charge       7.9988, renormalised to       8.0000
     Starting wfcs are    8 randomized atomic wfcs

     total cpu time spent up to now is        4.6 secs

     Self-consistent Calculation

     iteration #  1     ecut=    50.00 Ry     beta= 0.70
     Davidson diagonalization with overlap
     ethr =  1.00E-02,  avg # of iterations =  2.0

     Threshold (ethr) on eigenvalues was too large:
     Diagonalizing with lowered threshold

     Davidson diagonalization with overlap
     ethr =  5.86E-04,  avg # of iterations =  2.0

     total cpu time spent up to now is       19.1 secs

     total energy              =     -16.92147772 Ry
     estimated scf accuracy    <       0.05532459 Ry

     iteration #  2     ecut=    50.00 Ry     beta= 0.70
     Davidson diagonalization with overlap
     ethr =  6.92E-04,  avg # of iterations =  1.0

     total cpu time spent up to now is       29.7 secs

     total energy              =     -16.92318886 Ry
     estimated scf accuracy    <       0.00290212 Ry

     iteration #  3     ecut=    50.00 Ry     beta= 0.70
     Davidson diagonalization with overlap
     ethr =  3.63E-05,  avg # of iterations =  2.3

     total cpu time spent up to now is       43.9 secs

     total energy              =     -16.92385531 Ry
     estimated scf accuracy    <       0.00006663 Ry

     iteration #  4     ecut=    50.00 Ry     beta= 0.70
     Davidson diagonalization with overlap
     ethr =  8.33E-07,  avg # of iterations =  5.0

     total cpu time spent up to now is       68.1 secs

     total energy              =     -16.92393928 Ry
     estimated scf accuracy    <       0.00000028 Ry

     iteration #  5     ecut=    50.00 Ry     beta= 0.70
     Davidson diagonalization with overlap
     ethr =  3.46E-09,  avg # of iterations =  6.4

     total cpu time spent up to now is       97.4 secs

     total energy              =     -16.92394095 Ry
     estimated scf accuracy    <       0.00000001 Ry

     iteration #  6     ecut=    50.00 Ry     beta= 0.70
     Davidson diagonalization with overlap
     ethr =  1.47E-10,  avg # of iterations =  3.4

     total cpu time spent up to now is      116.3 secs

     total energy              =     -16.92394096 Ry
     estimated scf accuracy    <          1.2E-09 Ry

     iteration #  7     ecut=    50.00 Ry     beta= 0.70
     Davidson diagonalization with overlap
     ethr =  1.53E-11,  avg # of iterations =  3.2

     total cpu time spent up to now is      135.8 secs

     total energy              =     -16.92394096 Ry
     estimated scf accuracy    <          2.1E-10 Ry

     iteration #  8     ecut=    50.00 Ry     beta= 0.70
     Davidson diagonalization with overlap
     ethr =  2.64E-12,  avg # of iterations =  2.3

     total cpu time spent up to now is      153.0 secs

     End of self-consistent calculation

     Number of k-points >= 100: set verbosity='high' to print the bands.

     highest occupied level (ev):     6.4228

!    total energy              =     -16.92394096 Ry
     estimated scf accuracy    <          1.1E-13 Ry

     The total energy is the sum of the following terms:
     one-electron contribution =       5.10087700 Ry
     hartree contribution      =       1.07923797 Ry
     xc contribution           =      -6.20429731 Ry
     ewald contribution        =     -16.89975861 Ry

     convergence has been achieved in   8 iterations

     Writing all to output data dir /fastscratch/tsievers/QE_TMP_DIR/silicon_conv_kpoints_22.save/

     init_run     :      1.45s CPU      4.33s WALL (       1 calls)
     electrons    :     46.28s CPU    148.48s WALL (       1 calls)

     Called by init_run:
     wfcinit      :      1.29s CPU      3.96s WALL (       1 calls)
     potinit      :      0.01s CPU      0.01s WALL (       1 calls)
     hinit0       :      0.14s CPU      0.34s WALL (       1 calls)

     Called by electrons:
     c_bands      :     42.22s CPU    135.19s WALL (       9 calls)
     sum_band     :      3.97s CPU     13.00s WALL (       9 calls)
     v_of_rho     :      0.05s CPU      0.18s WALL (       9 calls)
     mix_rho      :      0.01s CPU      0.04s WALL (       9 calls)

     Called by c_bands:
     init_us_2    :      0.17s CPU      0.48s WALL (    6232 calls)
     init_us_2:cp :      0.16s CPU      0.47s WALL (    6232 calls)
     cegterg      :     40.61s CPU    130.05s WALL (    2952 calls)

     Called by *egterg:
     cdiaghg      :      0.30s CPU      0.91s WALL (   11693 calls)
     h_psi        :     32.11s CPU    102.11s WALL (   12349 calls)
     g_psi        :      0.02s CPU      0.07s WALL (    9069 calls)

     Called by h_psi:
     h_psi:calbec :      5.76s CPU     16.50s WALL (   12349 calls)
     vloc_psi     :     26.10s CPU     84.79s WALL (   12349 calls)
     add_vuspsi   :      0.19s CPU      0.64s WALL (   12349 calls)

     General routines
     calbec       :      5.74s CPU     16.43s WALL (   12349 calls)
     fft          :      0.16s CPU      0.37s WALL (      91 calls)
     ffts         :      0.00s CPU      0.00s WALL (       9 calls)
     fftw         :     29.71s CPU     96.77s WALL (   95972 calls)

     Parallel routines

     PWSCF        :     56.65s CPU   3m 8.88s WALL


   This run was terminated on:   9:15:53  12Feb2022            

=------------------------------------------------------------------------------=
   JOB DONE.
=------------------------------------------------------------------------------=
