Module for gcc 10.2:
(GNU C/C++/FORTRAN compilers v10.2.0) - loaded.
Module for OpenMPI 4.1.0-gcc10.2-infiniband loaded.

     Program PWSCF v.7.0 starts on 12Feb2022 at  9:12: 4 

     This program is part of the open-source Quantum ESPRESSO suite
     for quantum simulation of materials; please cite
         "P. Giannozzi et al., J. Phys.:Condens. Matter 21 395502 (2009);
         "P. Giannozzi et al., J. Phys.:Condens. Matter 29 465901 (2017);
         "P. Giannozzi et al., J. Chem. Phys. 152 154105 (2020);
          URL http://www.quantum-espresso.org", 
     in publications or presentations arising from this work. More details at
     http://www.quantum-espresso.org/quote

     Parallel version (MPI), running on    20 processors

     MPI processes distributed on     2 nodes
     R & G space division:  proc/nbgrp/npool/nimage =      20
     54987 MiB available memory on the printing compute node when the environment starts

     Reading input from in_files/si_conv_kpoints_8.scf

     Current dimensions of program PWSCF are:
     Max number of different atomic species (ntypx) = 10
     Max number of k-points (npk) =  40000
     Max angular momentum in pseudopotentials (lmaxx) =  4

     Subspace diagonalization in iterative solution of the eigenvalue problem:
     a serial algorithm will be used


     Parallelization info
     --------------------
     sticks:   dense  smooth     PW     G-vecs:    dense   smooth      PW
     Min          36      36     10                  630      630     104
     Max          37      37     11                  632      632     107
     Sum         721     721    211                12627    12627    2109

     Using Slab Decomposition



     bravais-lattice index     =            2
     lattice parameter (alat)  =      10.2000  a.u.
     unit-cell volume          =     265.3020 (a.u.)^3
     number of atoms/cell      =            2
     number of atomic types    =            1
     number of electrons       =         8.00
     number of Kohn-Sham states=            4
     kinetic-energy cutoff     =      50.0000  Ry
     charge density cutoff     =     200.0000  Ry
     scf convergence threshold =      1.0E-12
     mixing beta               =       0.7000
     number of iterations used =            8  plain     mixing
     Exchange-correlation= PBE
                           (   1   4   3   4   0   0   0)

     celldm(1)=  10.200000  celldm(2)=   0.000000  celldm(3)=   0.000000
     celldm(4)=   0.000000  celldm(5)=   0.000000  celldm(6)=   0.000000

     crystal axes: (cart. coord. in units of alat)
               a(1) = (  -0.500000   0.000000   0.500000 )  
               a(2) = (   0.000000   0.500000   0.500000 )  
               a(3) = (  -0.500000   0.500000   0.000000 )  

     reciprocal axes: (cart. coord. in units 2 pi/alat)
               b(1) = ( -1.000000 -1.000000  1.000000 )  
               b(2) = (  1.000000  1.000000  1.000000 )  
               b(3) = ( -1.000000  1.000000 -1.000000 )  


     PseudoPot. # 1 for Si read from file:
     ./pseudos/Si_pbe_v0.4.1.nc.sr.upf
     MD5 check sum: 02fab3f35e82123ef5bf1cb05d5b1a5e
     Pseudo is Norm-conserving + core correction, Zval =  4.0
     Generated using ONCVPSP code by D. R. Hamann
     Using radial grid of 1510 points,  6 beta functions with: 
                l(1) =   0
                l(2) =   0
                l(3) =   1
                l(4) =   1
                l(5) =   2
                l(6) =   2

     atomic species   valence    mass     pseudopotential
        Si             4.00    28.08600     Si( 1.00)

     48 Sym. Ops., with inversion, found (24 have fractional translation)



   Cartesian axes

     site n.     atom                  positions (alat units)
         1           Si  tau(   1) = (   0.0000000   0.0000000   0.0000000  )
         2           Si  tau(   2) = (   0.2500000   0.2500000   0.2500000  )

     number of k points=    29
                       cart. coord. in units 2pi/alat
        k(    1) = (   0.0000000   0.0000000   0.0000000), wk =   0.0039062
        k(    2) = (  -0.1250000   0.1250000  -0.1250000), wk =   0.0312500
        k(    3) = (  -0.2500000   0.2500000  -0.2500000), wk =   0.0312500
        k(    4) = (  -0.3750000   0.3750000  -0.3750000), wk =   0.0312500
        k(    5) = (   0.5000000  -0.5000000   0.5000000), wk =   0.0156250
        k(    6) = (   0.0000000   0.2500000   0.0000000), wk =   0.0234375
        k(    7) = (  -0.1250000   0.3750000  -0.1250000), wk =   0.0937500
        k(    8) = (  -0.2500000   0.5000000  -0.2500000), wk =   0.0937500
        k(    9) = (   0.6250000  -0.3750000   0.6250000), wk =   0.0937500
        k(   10) = (   0.5000000  -0.2500000   0.5000000), wk =   0.0937500
        k(   11) = (   0.3750000  -0.1250000   0.3750000), wk =   0.0937500
        k(   12) = (   0.2500000   0.0000000   0.2500000), wk =   0.0468750
        k(   13) = (   0.0000000   0.5000000   0.0000000), wk =   0.0234375
        k(   14) = (  -0.1250000   0.6250000  -0.1250000), wk =   0.0937500
        k(   15) = (   0.7500000  -0.2500000   0.7500000), wk =   0.0937500
        k(   16) = (   0.6250000  -0.1250000   0.6250000), wk =   0.0937500
        k(   17) = (   0.5000000   0.0000000   0.5000000), wk =   0.0468750
        k(   18) = (   0.0000000   0.7500000   0.0000000), wk =   0.0234375
        k(   19) = (   0.8750000  -0.1250000   0.8750000), wk =   0.0937500
        k(   20) = (   0.7500000   0.0000000   0.7500000), wk =   0.0468750
        k(   21) = (   0.0000000  -1.0000000   0.0000000), wk =   0.0117188
        k(   22) = (  -0.2500000   0.5000000   0.0000000), wk =   0.0937500
        k(   23) = (   0.6250000  -0.3750000   0.8750000), wk =   0.1875000
        k(   24) = (   0.5000000  -0.2500000   0.7500000), wk =   0.0937500
        k(   25) = (   0.7500000  -0.2500000   1.0000000), wk =   0.0937500
        k(   26) = (   0.6250000  -0.1250000   0.8750000), wk =   0.1875000
        k(   27) = (   0.5000000   0.0000000   0.7500000), wk =   0.0937500
        k(   28) = (  -0.2500000  -1.0000000   0.0000000), wk =   0.0468750
        k(   29) = (  -0.5000000  -1.0000000   0.0000000), wk =   0.0234375

     Dense  grid:    12627 G-vectors     FFT dimensions: (  36,  36,  36)

     Estimated max dynamical RAM per process >       1.79 MB

     Estimated total dynamical RAM >      35.78 MB

     Initial potential from superposition of free atoms

     starting charge       7.9988, renormalised to       8.0000
     Starting wfcs are    8 randomized atomic wfcs

     total cpu time spent up to now is        1.9 secs

     Self-consistent Calculation

     iteration #  1     ecut=    50.00 Ry     beta= 0.70
     Davidson diagonalization with overlap
     ethr =  1.00E-02,  avg # of iterations =  2.0

     Threshold (ethr) on eigenvalues was too large:
     Diagonalizing with lowered threshold

     Davidson diagonalization with overlap
     ethr =  5.89E-04,  avg # of iterations =  2.1

     total cpu time spent up to now is        5.2 secs

     total energy              =     -16.92120292 Ry
     estimated scf accuracy    <       0.05558250 Ry

     iteration #  2     ecut=    50.00 Ry     beta= 0.70
     Davidson diagonalization with overlap
     ethr =  6.95E-04,  avg # of iterations =  1.0

     total cpu time spent up to now is        5.9 secs

     total energy              =     -16.92291833 Ry
     estimated scf accuracy    <       0.00291151 Ry

     iteration #  3     ecut=    50.00 Ry     beta= 0.70
     Davidson diagonalization with overlap
     ethr =  3.64E-05,  avg # of iterations =  2.3

     total cpu time spent up to now is        7.4 secs

     total energy              =     -16.92357665 Ry
     estimated scf accuracy    <       0.00006791 Ry

     iteration #  4     ecut=    50.00 Ry     beta= 0.70
     Davidson diagonalization with overlap
     ethr =  8.49E-07,  avg # of iterations =  4.6

     total cpu time spent up to now is        8.4 secs

     total energy              =     -16.92364779 Ry
     estimated scf accuracy    <       0.00000055 Ry

     iteration #  5     ecut=    50.00 Ry     beta= 0.70
     Davidson diagonalization with overlap
     ethr =  6.87E-09,  avg # of iterations =  6.2

     total cpu time spent up to now is        9.6 secs

     total energy              =     -16.92364974 Ry
     estimated scf accuracy    <       0.00000005 Ry

     iteration #  6     ecut=    50.00 Ry     beta= 0.70
     Davidson diagonalization with overlap
     ethr =  6.48E-10,  avg # of iterations =  3.0

     total cpu time spent up to now is       10.4 secs

     total energy              =     -16.92364975 Ry
     estimated scf accuracy    <          2.8E-09 Ry

     iteration #  7     ecut=    50.00 Ry     beta= 0.70
     Davidson diagonalization with overlap
     ethr =  3.44E-11,  avg # of iterations =  3.7

     total cpu time spent up to now is       11.3 secs

     total energy              =     -16.92364975 Ry
     estimated scf accuracy    <          5.0E-10 Ry

     iteration #  8     ecut=    50.00 Ry     beta= 0.70
     Davidson diagonalization with overlap
     ethr =  6.25E-12,  avg # of iterations =  2.3

     total cpu time spent up to now is       11.9 secs

     total energy              =     -16.92364975 Ry
     estimated scf accuracy    <          1.9E-12 Ry

     iteration #  9     ecut=    50.00 Ry     beta= 0.70
     Davidson diagonalization with overlap
     ethr =  1.00E-13,  avg # of iterations =  5.9

     total cpu time spent up to now is       13.1 secs

     End of self-consistent calculation

          k = 0.0000 0.0000 0.0000 (  1591 PWs)   bands (ev):

    -5.6667   6.4246   6.4246   6.4246

          k =-0.1250 0.1250-0.1250 (  1564 PWs)   bands (ev):

    -5.4594   4.8155   6.1293   6.1293

          k =-0.2500 0.2500-0.2500 (  1582 PWs)   bands (ev):

    -4.8543   2.4583   5.6511   5.6511

          k =-0.3750 0.3750-0.3750 (  1592 PWs)   bands (ev):

    -3.9441   0.4074   5.3202   5.3202

          k = 0.5000-0.5000 0.5000 (  1568 PWs)   bands (ev):

    -3.2900  -0.6363   5.2072   5.2072

          k = 0.0000 0.2500 0.0000 (  1571 PWs)   bands (ev):

    -5.3896   5.1032   5.5991   5.5991

          k =-0.1250 0.3750-0.1250 (  1581 PWs)   bands (ev):

    -4.9136   3.1802   5.0788   5.1659

          k =-0.2500 0.5000-0.2500 (  1588 PWs)   bands (ev):

    -4.0846   1.0863   4.5668   4.8079

          k = 0.6250-0.3750 0.6250 (  1581 PWs)   bands (ev):

    -3.2038  -0.4057   4.1134   4.8347

          k = 0.5000-0.2500 0.5000 (  1586 PWs)   bands (ev):

    -3.4546  -0.0268   3.9260   5.1378

          k = 0.3750-0.1250 0.3750 (  1575 PWs)   bands (ev):

    -4.3964   1.7567   4.0740   5.6388

          k = 0.2500 0.0000 0.2500 (  1564 PWs)   bands (ev):

    -5.1180   3.7285   4.7603   6.1287

          k = 0.0000 0.5000 0.0000 (  1587 PWs)   bands (ev):

    -4.5681   2.9045   4.4974   4.4974

          k =-0.1250 0.6250-0.1250 (  1586 PWs)   bands (ev):

    -3.8466   1.4575   3.7039   4.1747

          k = 0.7500-0.2500 0.7500 (  1592 PWs)   bands (ev):

    -2.9024  -0.0136   2.8270   4.1789

          k = 0.6250-0.1250 0.6250 (  1574 PWs)   bands (ev):

    -2.6919  -0.2794   2.3589   4.5038

          k = 0.5000 0.0000 0.5000 (  1576 PWs)   bands (ev):

    -3.5890   0.9048   2.5982   5.0734

          k = 0.0000 0.7500 0.0000 (  1600 PWs)   bands (ev):

    -3.2351   0.6466   3.7698   3.7698

          k = 0.8750-0.1250 0.8750 (  1590 PWs)   bands (ev):

    -2.3223  -0.4543   2.9203   3.6929

          k = 0.7500 0.0000 0.7500 (  1580 PWs)   bands (ev):

    -1.8700  -0.8608   2.0336   3.9552

          k = 0.0000-1.0000 0.0000 (  1588 PWs)   bands (ev):

    -1.4574  -1.4574   3.5206   3.5206

          k =-0.2500 0.5000 0.0000 (  1576 PWs)   bands (ev):

    -4.3163   2.1125   3.6573   4.9718

          k = 0.6250-0.3750 0.8750 (  1583 PWs)   bands (ev):

    -3.4119   0.5324   3.0461   4.4578

          k = 0.5000-0.2500 0.7500 (  1570 PWs)   bands (ev):

    -2.7437  -0.4348   2.9194   4.2222

          k = 0.7500-0.2500 1.0000 (  1604 PWs)   bands (ev):

    -3.0319   0.4245   2.9967   3.6091

          k = 0.6250-0.1250 0.8750 (  1589 PWs)   bands (ev):

    -2.1388  -0.5603   2.2829   3.4043

          k = 0.5000 0.0000 0.7500 (  1576 PWs)   bands (ev):

    -2.4955  -0.1924   2.1121   3.7884

          k =-0.2500-1.0000 0.0000 (  1598 PWs)   bands (ev):

    -1.3757  -1.3757   2.9395   2.9395

          k =-0.5000-1.0000 0.0000 (  1604 PWs)   bands (ev):

    -1.2853  -1.2853   2.4912   2.4912

     highest occupied level (ev):     6.4246

!    total energy              =     -16.92364975 Ry
     estimated scf accuracy    <          7.2E-13 Ry

     The total energy is the sum of the following terms:
     one-electron contribution =       5.10062328 Ry
     hartree contribution      =       1.08022531 Ry
     xc contribution           =      -6.20473973 Ry
     ewald contribution        =     -16.89975861 Ry

     convergence has been achieved in   9 iterations

     Writing all to output data dir /fastscratch/tsievers/QE_TMP_DIR/silicon_conv_kpoints_8.save/

     init_run     :      0.47s CPU      1.34s WALL (       1 calls)
     electrons    :      5.20s CPU     11.24s WALL (       1 calls)

     Called by init_run:
     wfcinit      :      0.25s CPU      0.86s WALL (       1 calls)
     potinit      :      0.02s CPU      0.03s WALL (       1 calls)
     hinit0       :      0.15s CPU      0.32s WALL (       1 calls)

     Called by electrons:
     c_bands      :      4.64s CPU     10.09s WALL (      10 calls)
     sum_band     :      0.43s CPU      0.86s WALL (      10 calls)
     v_of_rho     :      0.04s CPU      0.06s WALL (      10 calls)
     mix_rho      :      0.05s CPU      0.09s WALL (      10 calls)

     Called by c_bands:
     init_us_2    :      0.02s CPU      0.03s WALL (     609 calls)
     init_us_2:cp :      0.02s CPU      0.03s WALL (     609 calls)
     cegterg      :      4.41s CPU      9.56s WALL (     290 calls)

     Called by *egterg:
     cdiaghg      :      0.03s CPU      0.06s WALL (    1218 calls)
     h_psi        :      3.60s CPU      8.16s WALL (    1276 calls)
     g_psi        :      0.00s CPU      0.00s WALL (     957 calls)

     Called by h_psi:
     h_psi:calbec :      0.61s CPU      1.30s WALL (    1276 calls)
     vloc_psi     :      2.96s CPU      6.82s WALL (    1276 calls)
     add_vuspsi   :      0.02s CPU      0.03s WALL (    1276 calls)

     General routines
     calbec       :      0.61s CPU      1.30s WALL (    1276 calls)
     fft          :      0.16s CPU      0.33s WALL (     101 calls)
     ffts         :      0.00s CPU      0.01s WALL (      10 calls)
     fftw         :      3.33s CPU      7.56s WALL (    9644 calls)

     Parallel routines

     PWSCF        :      6.45s CPU     14.48s WALL


   This run was terminated on:   9:12:18  12Feb2022            

=------------------------------------------------------------------------------=
   JOB DONE.
=------------------------------------------------------------------------------=
