Module for gcc 10.2:
(GNU C/C++/FORTRAN compilers v10.2.0) - loaded.
Module for OpenMPI 4.1.0-gcc10.2-infiniband loaded.

     Program PWSCF v.7.0 starts on  3Feb2022 at 16:30:36 

     This program is part of the open-source Quantum ESPRESSO suite
     for quantum simulation of materials; please cite
         "P. Giannozzi et al., J. Phys.:Condens. Matter 21 395502 (2009);
         "P. Giannozzi et al., J. Phys.:Condens. Matter 29 465901 (2017);
         "P. Giannozzi et al., J. Chem. Phys. 152 154105 (2020);
          URL http://www.quantum-espresso.org", 
     in publications or presentations arising from this work. More details at
     http://www.quantum-espresso.org/quote

     Parallel version (MPI), running on    20 processors

     MPI processes distributed on     1 nodes
     R & G space division:  proc/nbgrp/npool/nimage =      20
     62541 MiB available memory on the printing compute node when the environment starts

     Reading input from in_files/kp_28.scf

     Current dimensions of program PWSCF are:
     Max number of different atomic species (ntypx) = 10
     Max number of k-points (npk) =  40000
     Max angular momentum in pseudopotentials (lmaxx) =  4

     Subspace diagonalization in iterative solution of the eigenvalue problem:
     a serial algorithm will be used


     Parallelization info
     --------------------
     sticks:   dense  smooth     PW     G-vecs:    dense   smooth      PW
     Min          15      15      6                  189      189      40
     Max          16      16      7                  194      194      42
     Sum         313     313    121                 3839     3839     821

     Using Slab Decomposition



     bravais-lattice index     =            2
     lattice parameter (alat)  =      10.2000  a.u.
     unit-cell volume          =     265.3020 (a.u.)^3
     number of atoms/cell      =            2
     number of atomic types    =            1
     number of electrons       =         8.00
     number of Kohn-Sham states=            4
     kinetic-energy cutoff     =      23.0000  Ry
     charge density cutoff     =      92.0000  Ry
     scf convergence threshold =      1.0E-12
     mixing beta               =       0.7000
     number of iterations used =            8  plain     mixing
     Exchange-correlation= PBE
                           (   1   4   3   4   0   0   0)

     celldm(1)=  10.200000  celldm(2)=   0.000000  celldm(3)=   0.000000
     celldm(4)=   0.000000  celldm(5)=   0.000000  celldm(6)=   0.000000

     crystal axes: (cart. coord. in units of alat)
               a(1) = (  -0.500000   0.000000   0.500000 )  
               a(2) = (   0.000000   0.500000   0.500000 )  
               a(3) = (  -0.500000   0.500000   0.000000 )  

     reciprocal axes: (cart. coord. in units 2 pi/alat)
               b(1) = ( -1.000000 -1.000000  1.000000 )  
               b(2) = (  1.000000  1.000000  1.000000 )  
               b(3) = ( -1.000000  1.000000 -1.000000 )  


     PseudoPot. # 1 for Si read from file:
     ./pseudos/Si_pbe_v0.4.1.nc.sr.upf
     MD5 check sum: 02fab3f35e82123ef5bf1cb05d5b1a5e
     Pseudo is Norm-conserving + core correction, Zval =  4.0
     Generated using ONCVPSP code by D. R. Hamann
     Using radial grid of 1510 points,  6 beta functions with: 
                l(1) =   0
                l(2) =   0
                l(3) =   1
                l(4) =   1
                l(5) =   2
                l(6) =   2

     atomic species   valence    mass     pseudopotential
        Si             4.00    28.08600     Si( 1.00)

     48 Sym. Ops., with inversion, found (24 have fractional translation)



   Cartesian axes

     site n.     atom                  positions (alat units)
         1           Si  tau(   1) = (   0.0000000   0.0000000   0.0000000  )
         2           Si  tau(   2) = (   0.2500000   0.2500000   0.2500000  )

     number of k points=   624

     Number of k-points >= 100: set verbosity='high' to print them.

     Dense  grid:     3839 G-vectors     FFT dimensions: (  24,  24,  24)

     Estimated max dynamical RAM per process >       1.87 MB

     Estimated total dynamical RAM >      37.42 MB

     Initial potential from superposition of free atoms

     starting charge       7.9988, renormalised to       8.0000
     Starting wfcs are    8 randomized atomic wfcs

     total cpu time spent up to now is        0.7 secs

     Self-consistent Calculation

     iteration #  1     ecut=    23.00 Ry     beta= 0.70
     Davidson diagonalization with overlap
     ethr =  1.00E-02,  avg # of iterations =  2.0

     Threshold (ethr) on eigenvalues was too large:
     Diagonalizing with lowered threshold

     Davidson diagonalization with overlap
     ethr =  5.90E-04,  avg # of iterations =  2.0

     total cpu time spent up to now is        2.4 secs

     total energy              =     -16.92072646 Ry
     estimated scf accuracy    <       0.05531928 Ry

     iteration #  2     ecut=    23.00 Ry     beta= 0.70
     Davidson diagonalization with overlap
     ethr =  6.91E-04,  avg # of iterations =  1.0

     total cpu time spent up to now is        3.1 secs

     total energy              =     -16.92241291 Ry
     estimated scf accuracy    <       0.00286839 Ry

     iteration #  3     ecut=    23.00 Ry     beta= 0.70
     Davidson diagonalization with overlap
     ethr =  3.59E-05,  avg # of iterations =  2.3

     total cpu time spent up to now is        4.0 secs

     total energy              =     -16.92303238 Ry
     estimated scf accuracy    <       0.00006625 Ry

     iteration #  4     ecut=    23.00 Ry     beta= 0.70
     Davidson diagonalization with overlap
     ethr =  8.28E-07,  avg # of iterations =  4.9

     total cpu time spent up to now is        5.4 secs

     total energy              =     -16.92311019 Ry
     estimated scf accuracy    <       0.00000026 Ry

     iteration #  5     ecut=    23.00 Ry     beta= 0.70
     Davidson diagonalization with overlap
     ethr =  3.20E-09,  avg # of iterations =  6.4

     total cpu time spent up to now is        7.1 secs

     total energy              =     -16.92311170 Ry
     estimated scf accuracy    <       0.00000002 Ry

     iteration #  6     ecut=    23.00 Ry     beta= 0.70
     Davidson diagonalization with overlap
     ethr =  3.00E-10,  avg # of iterations =  2.5

     total cpu time spent up to now is        8.1 secs

     total energy              =     -16.92311171 Ry
     estimated scf accuracy    <          5.0E-09 Ry

     iteration #  7     ecut=    23.00 Ry     beta= 0.70
     Davidson diagonalization with overlap
     ethr =  6.29E-11,  avg # of iterations =  2.3

     total cpu time spent up to now is        9.0 secs

     total energy              =     -16.92311171 Ry
     estimated scf accuracy    <          1.6E-10 Ry

     iteration #  8     ecut=    23.00 Ry     beta= 0.70
     Davidson diagonalization with overlap
     ethr =  1.98E-12,  avg # of iterations =  3.9

     total cpu time spent up to now is       10.2 secs

     total energy              =     -16.92311171 Ry
     estimated scf accuracy    <          4.0E-12 Ry

     iteration #  9     ecut=    23.00 Ry     beta= 0.70
     Davidson diagonalization with overlap
     ethr =  1.00E-13,  avg # of iterations =  3.5

     total cpu time spent up to now is       11.2 secs

     End of self-consistent calculation

     Number of k-points >= 100: set verbosity='high' to print the bands.

     highest occupied level (ev):     6.4252

!    total energy              =     -16.92311171 Ry
     estimated scf accuracy    <          7.7E-13 Ry

     The total energy is the sum of the following terms:
     one-electron contribution =       5.10175747 Ry
     hartree contribution      =       1.07881439 Ry
     xc contribution           =      -6.20392497 Ry
     ewald contribution        =     -16.89975860 Ry

     convergence has been achieved in   9 iterations

     Forces acting on atoms (cartesian axes, Ry/au):

     atom    1 type  1   force =    -0.00000000    0.00000000   -0.00000000
     atom    2 type  1   force =     0.00000000   -0.00000000    0.00000000

     Total force =     0.000000     Total SCF correction =     0.000000


     Computing stress (Cartesian axis) and pressure

          total   stress  (Ry/bohr**3)                   (kbar)     P=       36.97
   0.00025131  -0.00000000  -0.00000000           36.97       -0.00       -0.00
  -0.00000000   0.00025131  -0.00000000           -0.00       36.97       -0.00
   0.00000000  -0.00000000   0.00025131            0.00       -0.00       36.97


     Writing all to output data dir /fastscratch/tsievers/QE_TMP_DIR/silicon.save/

     init_run     :      0.54s CPU      0.61s WALL (       1 calls)
     electrons    :      9.71s CPU     10.57s WALL (       1 calls)
     forces       :      0.10s CPU      0.10s WALL (       1 calls)
     stress       :      0.19s CPU      0.19s WALL (       1 calls)

     Called by init_run:
     wfcinit      :      0.43s CPU      0.49s WALL (       1 calls)
     potinit      :      0.00s CPU      0.00s WALL (       1 calls)
     hinit0       :      0.11s CPU      0.11s WALL (       1 calls)

     Called by electrons:
     c_bands      :      8.74s CPU      9.53s WALL (      10 calls)
     sum_band     :      0.95s CPU      1.02s WALL (      10 calls)
     v_of_rho     :      0.01s CPU      0.01s WALL (      10 calls)
     mix_rho      :      0.00s CPU      0.00s WALL (      10 calls)

     Called by c_bands:
     init_us_2    :      0.23s CPU      0.25s WALL (   14352 calls)
     init_us_2:cp :      0.21s CPU      0.23s WALL (   14352 calls)
     cegterg      :      8.20s CPU      8.93s WALL (    6240 calls)

     Called by *egterg:
     cdiaghg      :      0.81s CPU      0.89s WALL (   24740 calls)
     h_psi        :      6.69s CPU      7.31s WALL (   25988 calls)
     g_psi        :      0.03s CPU      0.03s WALL (   19124 calls)

     Called by h_psi:
     h_psi:calbec :      0.61s CPU      0.67s WALL (   25988 calls)
     vloc_psi     :      5.67s CPU      6.19s WALL (   25988 calls)
     add_vuspsi   :      0.27s CPU      0.30s WALL (   25988 calls)

     General routines
     calbec       :      0.65s CPU      0.71s WALL (   29108 calls)
     fft          :      0.10s CPU      0.10s WALL (     125 calls)
     ffts         :      0.00s CPU      0.00s WALL (      10 calls)
     fftw         :      6.06s CPU      6.61s WALL (  199194 calls)

     Parallel routines

     PWSCF        :     10.93s CPU     22.18s WALL


   This run was terminated on:  16:30:58   3Feb2022            

=------------------------------------------------------------------------------=
   JOB DONE.
=------------------------------------------------------------------------------=
