Module for gcc 10.2:
(GNU C/C++/FORTRAN compilers v10.2.0) - loaded.
Module for OpenMPI 4.1.0-gcc10.2-infiniband loaded.

     Program PWSCF v.7.0 starts on 12Feb2022 at 12:38:23 

     This program is part of the open-source Quantum ESPRESSO suite
     for quantum simulation of materials; please cite
         "P. Giannozzi et al., J. Phys.:Condens. Matter 21 395502 (2009);
         "P. Giannozzi et al., J. Phys.:Condens. Matter 29 465901 (2017);
         "P. Giannozzi et al., J. Chem. Phys. 152 154105 (2020);
          URL http://www.quantum-espresso.org", 
     in publications or presentations arising from this work. More details at
     http://www.quantum-espresso.org/quote

     Parallel version (MPI), running on     1 processors

     MPI processes distributed on     1 nodes
     47392 MiB available memory on the printing compute node when the environment starts

     Reading input from in_files/ec_56.scf

     Current dimensions of program PWSCF are:
     Max number of different atomic species (ntypx) = 10
     Max number of k-points (npk) =  40000
     Max angular momentum in pseudopotentials (lmaxx) =  4

     Subspace diagonalization in iterative solution of the eigenvalue problem:
     a serial algorithm will be used


     G-vector sticks info
     --------------------
     sticks:   dense  smooth     PW     G-vecs:    dense   smooth      PW
     Sum         805     805    253                15065    15065    2637

     Using Slab Decomposition



     bravais-lattice index     =            2
     lattice parameter (alat)  =      10.2000  a.u.
     unit-cell volume          =     265.3020 (a.u.)^3
     number of atoms/cell      =            2
     number of atomic types    =            1
     number of electrons       =         8.00
     number of Kohn-Sham states=            4
     kinetic-energy cutoff     =      56.0000  Ry
     charge density cutoff     =     224.0000  Ry
     scf convergence threshold =      1.0E-12
     mixing beta               =       0.7000
     number of iterations used =            8  plain     mixing
     Exchange-correlation= PBE
                           (   1   4   3   4   0   0   0)

     celldm(1)=  10.200000  celldm(2)=   0.000000  celldm(3)=   0.000000
     celldm(4)=   0.000000  celldm(5)=   0.000000  celldm(6)=   0.000000

     crystal axes: (cart. coord. in units of alat)
               a(1) = (  -0.500000   0.000000   0.500000 )  
               a(2) = (   0.000000   0.500000   0.500000 )  
               a(3) = (  -0.500000   0.500000   0.000000 )  

     reciprocal axes: (cart. coord. in units 2 pi/alat)
               b(1) = ( -1.000000 -1.000000  1.000000 )  
               b(2) = (  1.000000  1.000000  1.000000 )  
               b(3) = ( -1.000000  1.000000 -1.000000 )  


     PseudoPot. # 1 for Si read from file:
     ./pseudos/Si_pbe_v0.4.1.nc.sr.upf
     MD5 check sum: 02fab3f35e82123ef5bf1cb05d5b1a5e
     Pseudo is Norm-conserving + core correction, Zval =  4.0
     Generated using ONCVPSP code by D. R. Hamann
     Using radial grid of 1510 points,  6 beta functions with: 
                l(1) =   0
                l(2) =   0
                l(3) =   1
                l(4) =   1
                l(5) =   2
                l(6) =   2

     atomic species   valence    mass     pseudopotential
        Si             4.00    28.08600     Si( 1.00)

     48 Sym. Ops., with inversion, found (24 have fractional translation)



   Cartesian axes

     site n.     atom                  positions (alat units)
         1           Si  tau(   1) = (   0.0000000   0.0000000   0.0000000  )
         2           Si  tau(   2) = (   0.2500000   0.2500000   0.2500000  )

     number of k points=    29
                       cart. coord. in units 2pi/alat
        k(    1) = (   0.0000000   0.0000000   0.0000000), wk =   0.0039062
        k(    2) = (  -0.1250000   0.1250000  -0.1250000), wk =   0.0312500
        k(    3) = (  -0.2500000   0.2500000  -0.2500000), wk =   0.0312500
        k(    4) = (  -0.3750000   0.3750000  -0.3750000), wk =   0.0312500
        k(    5) = (   0.5000000  -0.5000000   0.5000000), wk =   0.0156250
        k(    6) = (   0.0000000   0.2500000   0.0000000), wk =   0.0234375
        k(    7) = (  -0.1250000   0.3750000  -0.1250000), wk =   0.0937500
        k(    8) = (  -0.2500000   0.5000000  -0.2500000), wk =   0.0937500
        k(    9) = (   0.6250000  -0.3750000   0.6250000), wk =   0.0937500
        k(   10) = (   0.5000000  -0.2500000   0.5000000), wk =   0.0937500
        k(   11) = (   0.3750000  -0.1250000   0.3750000), wk =   0.0937500
        k(   12) = (   0.2500000   0.0000000   0.2500000), wk =   0.0468750
        k(   13) = (   0.0000000   0.5000000   0.0000000), wk =   0.0234375
        k(   14) = (  -0.1250000   0.6250000  -0.1250000), wk =   0.0937500
        k(   15) = (   0.7500000  -0.2500000   0.7500000), wk =   0.0937500
        k(   16) = (   0.6250000  -0.1250000   0.6250000), wk =   0.0937500
        k(   17) = (   0.5000000   0.0000000   0.5000000), wk =   0.0468750
        k(   18) = (   0.0000000   0.7500000   0.0000000), wk =   0.0234375
        k(   19) = (   0.8750000  -0.1250000   0.8750000), wk =   0.0937500
        k(   20) = (   0.7500000   0.0000000   0.7500000), wk =   0.0468750
        k(   21) = (   0.0000000  -1.0000000   0.0000000), wk =   0.0117188
        k(   22) = (  -0.2500000   0.5000000   0.0000000), wk =   0.0937500
        k(   23) = (   0.6250000  -0.3750000   0.8750000), wk =   0.1875000
        k(   24) = (   0.5000000  -0.2500000   0.7500000), wk =   0.0937500
        k(   25) = (   0.7500000  -0.2500000   1.0000000), wk =   0.0937500
        k(   26) = (   0.6250000  -0.1250000   0.8750000), wk =   0.1875000
        k(   27) = (   0.5000000   0.0000000   0.7500000), wk =   0.0937500
        k(   28) = (  -0.2500000  -1.0000000   0.0000000), wk =   0.0468750
        k(   29) = (  -0.5000000  -1.0000000   0.0000000), wk =   0.0234375

     Dense  grid:    15065 G-vectors     FFT dimensions: (  36,  36,  36)

     Estimated max dynamical RAM per process >      15.60 MB

     Initial potential from superposition of free atoms

     starting charge       7.9988, renormalised to       8.0000
     Starting wfcs are    8 randomized atomic wfcs

     total cpu time spent up to now is        0.8 secs

     Self-consistent Calculation

     iteration #  1     ecut=    56.00 Ry     beta= 0.70
     Davidson diagonalization with overlap
     ethr =  1.00E-02,  avg # of iterations =  2.0

     Threshold (ethr) on eigenvalues was too large:
     Diagonalizing with lowered threshold

     Davidson diagonalization with overlap
     ethr =  5.91E-04,  avg # of iterations =  2.0

     total cpu time spent up to now is        1.8 secs

     total energy              =     -16.92118552 Ry
     estimated scf accuracy    <       0.05548245 Ry

     iteration #  2     ecut=    56.00 Ry     beta= 0.70
     Davidson diagonalization with overlap
     ethr =  6.94E-04,  avg # of iterations =  1.0

     total cpu time spent up to now is        2.2 secs

     total energy              =     -16.92291516 Ry
     estimated scf accuracy    <       0.00291715 Ry

     iteration #  3     ecut=    56.00 Ry     beta= 0.70
     Davidson diagonalization with overlap
     ethr =  3.65E-05,  avg # of iterations =  2.5

     total cpu time spent up to now is        2.7 secs

     total energy              =     -16.92358760 Ry
     estimated scf accuracy    <       0.00007141 Ry

     iteration #  4     ecut=    56.00 Ry     beta= 0.70
     Davidson diagonalization with overlap
     ethr =  8.93E-07,  avg # of iterations =  4.3

     total cpu time spent up to now is        3.4 secs

     total energy              =     -16.92365569 Ry
     estimated scf accuracy    <       0.00000109 Ry

     iteration #  5     ecut=    56.00 Ry     beta= 0.70
     Davidson diagonalization with overlap
     ethr =  1.36E-08,  avg # of iterations =  5.1

     total cpu time spent up to now is        4.1 secs

     total energy              =     -16.92365760 Ry
     estimated scf accuracy    <       0.00000011 Ry

     iteration #  6     ecut=    56.00 Ry     beta= 0.70
     Davidson diagonalization with overlap
     ethr =  1.34E-09,  avg # of iterations =  2.9

     total cpu time spent up to now is        4.7 secs

     total energy              =     -16.92365763 Ry
     estimated scf accuracy    <          5.6E-09 Ry

     iteration #  7     ecut=    56.00 Ry     beta= 0.70
     Davidson diagonalization with overlap
     ethr =  7.00E-11,  avg # of iterations =  3.8

     total cpu time spent up to now is        5.3 secs

     total energy              =     -16.92365764 Ry
     estimated scf accuracy    <          7.0E-10 Ry

     iteration #  8     ecut=    56.00 Ry     beta= 0.70
     Davidson diagonalization with overlap
     ethr =  8.72E-12,  avg # of iterations =  2.2

     total cpu time spent up to now is        5.8 secs

     total energy              =     -16.92365764 Ry
     estimated scf accuracy    <          3.2E-12 Ry

     iteration #  9     ecut=    56.00 Ry     beta= 0.70
     Davidson diagonalization with overlap
     ethr =  1.00E-13,  avg # of iterations =  6.2

     total cpu time spent up to now is        6.6 secs

     total energy              =     -16.92365764 Ry
     estimated scf accuracy    <          1.9E-12 Ry

     iteration # 10     ecut=    56.00 Ry     beta= 0.70
     Davidson diagonalization with overlap
     ethr =  1.00E-13,  avg # of iterations =  1.0

     total cpu time spent up to now is        7.0 secs

     End of self-consistent calculation

          k = 0.0000 0.0000 0.0000 (  1893 PWs)   bands (ev):

    -5.6667   6.4246   6.4246   6.4246

          k =-0.1250 0.1250-0.1250 (  1880 PWs)   bands (ev):

    -5.4595   4.8155   6.1293   6.1293

          k =-0.2500 0.2500-0.2500 (  1886 PWs)   bands (ev):

    -4.8543   2.4583   5.6510   5.6510

          k =-0.3750 0.3750-0.3750 (  1880 PWs)   bands (ev):

    -3.9441   0.4074   5.3201   5.3201

          k = 0.5000-0.5000 0.5000 (  1892 PWs)   bands (ev):

    -3.2901  -0.6363   5.2072   5.2072

          k = 0.0000 0.2500 0.0000 (  1884 PWs)   bands (ev):

    -5.3896   5.1032   5.5990   5.5990

          k =-0.1250 0.3750-0.1250 (  1892 PWs)   bands (ev):

    -4.9136   3.1802   5.0788   5.1659

          k =-0.2500 0.5000-0.2500 (  1887 PWs)   bands (ev):

    -4.0847   1.0863   4.5668   4.8079

          k = 0.6250-0.3750 0.6250 (  1876 PWs)   bands (ev):

    -3.2038  -0.4057   4.1134   4.8347

          k = 0.5000-0.2500 0.5000 (  1881 PWs)   bands (ev):

    -3.4547  -0.0268   3.9260   5.1377

          k = 0.3750-0.1250 0.3750 (  1884 PWs)   bands (ev):

    -4.3964   1.7567   4.0739   5.6388

          k = 0.2500 0.0000 0.2500 (  1895 PWs)   bands (ev):

    -5.1180   3.7285   4.7603   6.1287

          k = 0.0000 0.5000 0.0000 (  1876 PWs)   bands (ev):

    -4.5681   2.9045   4.4973   4.4973

          k =-0.1250 0.6250-0.1250 (  1888 PWs)   bands (ev):

    -3.8466   1.4575   3.7039   4.1747

          k = 0.7500-0.2500 0.7500 (  1872 PWs)   bands (ev):

    -2.9024  -0.0136   2.8270   4.1789

          k = 0.6250-0.1250 0.6250 (  1869 PWs)   bands (ev):

    -2.6919  -0.2794   2.3589   4.5038

          k = 0.5000 0.0000 0.5000 (  1883 PWs)   bands (ev):

    -3.5890   0.9048   2.5982   5.0734

          k = 0.0000 0.7500 0.0000 (  1872 PWs)   bands (ev):

    -3.2351   0.6466   3.7698   3.7698

          k = 0.8750-0.1250 0.8750 (  1869 PWs)   bands (ev):

    -2.3224  -0.4543   2.9203   3.6929

          k = 0.7500 0.0000 0.7500 (  1878 PWs)   bands (ev):

    -1.8700  -0.8608   2.0336   3.9552

          k = 0.0000-1.0000 0.0000 (  1868 PWs)   bands (ev):

    -1.4574  -1.4574   3.5206   3.5206

          k =-0.2500 0.5000 0.0000 (  1889 PWs)   bands (ev):

    -4.3163   2.1125   3.6573   4.9718

          k = 0.6250-0.3750 0.8750 (  1880 PWs)   bands (ev):

    -3.4119   0.5324   3.0461   4.4578

          k = 0.5000-0.2500 0.7500 (  1868 PWs)   bands (ev):

    -2.7437  -0.4348   2.9194   4.2222

          k = 0.7500-0.2500 1.0000 (  1863 PWs)   bands (ev):

    -3.0319   0.4245   2.9967   3.6091

          k = 0.6250-0.1250 0.8750 (  1867 PWs)   bands (ev):

    -2.1388  -0.5603   2.2829   3.4043

          k = 0.5000 0.0000 0.7500 (  1873 PWs)   bands (ev):

    -2.4955  -0.1924   2.1121   3.7884

          k =-0.2500-1.0000 0.0000 (  1872 PWs)   bands (ev):

    -1.3757  -1.3757   2.9395   2.9395

          k =-0.5000-1.0000 0.0000 (  1888 PWs)   bands (ev):

    -1.2853  -1.2853   2.4912   2.4912

     highest occupied level (ev):     6.4246

!    total energy              =     -16.92365764 Ry
     estimated scf accuracy    <          2.9E-13 Ry

     The total energy is the sum of the following terms:
     one-electron contribution =       5.10061561 Ry
     hartree contribution      =       1.08022601 Ry
     xc contribution           =      -6.20474067 Ry
     ewald contribution        =     -16.89975858 Ry

     convergence has been achieved in  10 iterations

     Writing all to output data dir /fastscratch/tsievers/QE_TMP_DIR/silicon_bench_singlecore_ecut_56.save/

     init_run     :      0.72s CPU      0.73s WALL (       1 calls)
     electrons    :      6.24s CPU      6.29s WALL (       1 calls)

     Called by init_run:
     wfcinit      :      0.42s CPU      0.42s WALL (       1 calls)
     potinit      :      0.03s CPU      0.04s WALL (       1 calls)
     hinit0       :      0.25s CPU      0.25s WALL (       1 calls)

     Called by electrons:
     c_bands      :      5.17s CPU      5.21s WALL (      11 calls)
     sum_band     :      0.78s CPU      0.78s WALL (      11 calls)
     v_of_rho     :      0.29s CPU      0.29s WALL (      11 calls)
     mix_rho      :      0.02s CPU      0.02s WALL (      11 calls)

     Called by c_bands:
     init_us_2    :      0.44s CPU      0.44s WALL (     667 calls)
     init_us_2:cp :      0.44s CPU      0.44s WALL (     667 calls)
     cegterg      :      4.25s CPU      4.28s WALL (     319 calls)

     Called by *egterg:
     cdiaghg      :      0.03s CPU      0.03s WALL (    1249 calls)
     h_psi        :      4.14s CPU      4.16s WALL (    1307 calls)
     g_psi        :      0.04s CPU      0.04s WALL (     959 calls)

     Called by h_psi:
     h_psi:calbec :      0.43s CPU      0.43s WALL (    1307 calls)
     vloc_psi     :      3.26s CPU      3.27s WALL (    1307 calls)
     add_vuspsi   :      0.44s CPU      0.44s WALL (    1307 calls)

     General routines
     calbec       :      0.42s CPU      0.43s WALL (    1307 calls)
     fft          :      0.21s CPU      0.21s WALL (     111 calls)
     ffts         :      0.01s CPU      0.01s WALL (      11 calls)
     fftw         :      3.19s CPU      3.20s WALL (   10060 calls)

     Parallel routines

     PWSCF        :      7.01s CPU      7.20s WALL


   This run was terminated on:  12:38:30  12Feb2022            

=------------------------------------------------------------------------------=
   JOB DONE.
=------------------------------------------------------------------------------=
