Module for gcc 10.2:
(GNU C/C++/FORTRAN compilers v10.2.0) - loaded.
Module for OpenMPI 4.1.0-gcc10.2-infiniband loaded.

     Program PWSCF v.7.0 starts on 12Feb2022 at 16:10:23 

     This program is part of the open-source Quantum ESPRESSO suite
     for quantum simulation of materials; please cite
         "P. Giannozzi et al., J. Phys.:Condens. Matter 21 395502 (2009);
         "P. Giannozzi et al., J. Phys.:Condens. Matter 29 465901 (2017);
         "P. Giannozzi et al., J. Chem. Phys. 152 154105 (2020);
          URL http://www.quantum-espresso.org", 
     in publications or presentations arising from this work. More details at
     http://www.quantum-espresso.org/quote

     Parallel version (MPI), running on     1 processors

     MPI processes distributed on     1 nodes
     44944 MiB available memory on the printing compute node when the environment starts

     Reading input from in_files/kp_50.scf

     Current dimensions of program PWSCF are:
     Max number of different atomic species (ntypx) = 10
     Max number of k-points (npk) =  40000
     Max angular momentum in pseudopotentials (lmaxx) =  4

     Subspace diagonalization in iterative solution of the eigenvalue problem:
     a serial algorithm will be used


     G-vector sticks info
     --------------------
     sticks:   dense  smooth     PW     G-vecs:    dense   smooth      PW
     Sum         313     313    121                 3839     3839     869

     Using Slab Decomposition



     bravais-lattice index     =            2
     lattice parameter (alat)  =      10.2000  a.u.
     unit-cell volume          =     265.3020 (a.u.)^3
     number of atoms/cell      =            2
     number of atomic types    =            1
     number of electrons       =         8.00
     number of Kohn-Sham states=            4
     kinetic-energy cutoff     =      23.0000  Ry
     charge density cutoff     =      92.0000  Ry
     scf convergence threshold =      1.0E-12
     mixing beta               =       0.7000
     number of iterations used =            8  plain     mixing
     Exchange-correlation= PBE
                           (   1   4   3   4   0   0   0)

     celldm(1)=  10.200000  celldm(2)=   0.000000  celldm(3)=   0.000000
     celldm(4)=   0.000000  celldm(5)=   0.000000  celldm(6)=   0.000000

     crystal axes: (cart. coord. in units of alat)
               a(1) = (  -0.500000   0.000000   0.500000 )  
               a(2) = (   0.000000   0.500000   0.500000 )  
               a(3) = (  -0.500000   0.500000   0.000000 )  

     reciprocal axes: (cart. coord. in units 2 pi/alat)
               b(1) = ( -1.000000 -1.000000  1.000000 )  
               b(2) = (  1.000000  1.000000  1.000000 )  
               b(3) = ( -1.000000  1.000000 -1.000000 )  


     PseudoPot. # 1 for Si read from file:
     ./pseudos/Si_pbe_v0.4.1.nc.sr.upf
     MD5 check sum: 02fab3f35e82123ef5bf1cb05d5b1a5e
     Pseudo is Norm-conserving + core correction, Zval =  4.0
     Generated using ONCVPSP code by D. R. Hamann
     Using radial grid of 1510 points,  6 beta functions with: 
                l(1) =   0
                l(2) =   0
                l(3) =   1
                l(4) =   1
                l(5) =   2
                l(6) =   2

     atomic species   valence    mass     pseudopotential
        Si             4.00    28.08600     Si( 1.00)

     48 Sym. Ops., with inversion, found (24 have fractional translation)



   Cartesian axes

     site n.     atom                  positions (alat units)
         1           Si  tau(   1) = (   0.0000000   0.0000000   0.0000000  )
         2           Si  tau(   2) = (   0.2500000   0.2500000   0.2500000  )

     number of k points=  3107

     Number of k-points >= 100: set verbosity='high' to print them.

     Dense  grid:     3839 G-vectors     FFT dimensions: (  24,  24,  24)

     Estimated max dynamical RAM per process >      97.42 MB

     Initial potential from superposition of free atoms

     starting charge       7.9988, renormalised to       8.0000
     Starting wfcs are    8 randomized atomic wfcs

     total cpu time spent up to now is        9.2 secs

     Self-consistent Calculation

     iteration #  1     ecut=    23.00 Ry     beta= 0.70
     Davidson diagonalization with overlap
     ethr =  1.00E-02,  avg # of iterations =  2.0

     Threshold (ethr) on eigenvalues was too large:
     Diagonalizing with lowered threshold

     Davidson diagonalization with overlap
     ethr =  5.90E-04,  avg # of iterations =  2.0

     total cpu time spent up to now is       38.8 secs

     total energy              =     -16.92072816 Ry
     estimated scf accuracy    <       0.05532674 Ry

     iteration #  2     ecut=    23.00 Ry     beta= 0.70
     Davidson diagonalization with overlap
     ethr =  6.92E-04,  avg # of iterations =  1.0

     total cpu time spent up to now is       50.7 secs

     total energy              =     -16.92241479 Ry
     estimated scf accuracy    <       0.00286657 Ry

     iteration #  3     ecut=    23.00 Ry     beta= 0.70
     Davidson diagonalization with overlap
     ethr =  3.58E-05,  avg # of iterations =  2.2

     total cpu time spent up to now is       66.4 secs

     total energy              =     -16.92303209 Ry
     estimated scf accuracy    <       0.00006567 Ry

     iteration #  4     ecut=    23.00 Ry     beta= 0.70
     Davidson diagonalization with overlap
     ethr =  8.21E-07,  avg # of iterations =  5.0

     total cpu time spent up to now is       88.2 secs

     total energy              =     -16.92311074 Ry
     estimated scf accuracy    <       0.00000021 Ry

     iteration #  5     ecut=    23.00 Ry     beta= 0.70
     Davidson diagonalization with overlap
     ethr =  2.65E-09,  avg # of iterations =  6.6

     total cpu time spent up to now is      114.8 secs

     total energy              =     -16.92311229 Ry
     estimated scf accuracy    <       0.00000002 Ry

     iteration #  6     ecut=    23.00 Ry     beta= 0.70
     Davidson diagonalization with overlap
     ethr =  2.48E-10,  avg # of iterations =  2.4

     total cpu time spent up to now is      131.2 secs

     total energy              =     -16.92311229 Ry
     estimated scf accuracy    <          4.7E-09 Ry

     iteration #  7     ecut=    23.00 Ry     beta= 0.70
     Davidson diagonalization with overlap
     ethr =  5.82E-11,  avg # of iterations =  2.3

     total cpu time spent up to now is      145.8 secs

     total energy              =     -16.92311229 Ry
     estimated scf accuracy    <          1.4E-10 Ry

     iteration #  8     ecut=    23.00 Ry     beta= 0.70
     Davidson diagonalization with overlap
     ethr =  1.78E-12,  avg # of iterations =  3.8

     total cpu time spent up to now is      164.2 secs

     total energy              =     -16.92311229 Ry
     estimated scf accuracy    <          3.8E-12 Ry

     iteration #  9     ecut=    23.00 Ry     beta= 0.70
     Davidson diagonalization with overlap
     ethr =  1.00E-13,  avg # of iterations =  3.4

     total cpu time spent up to now is      180.7 secs

     End of self-consistent calculation

     Number of k-points >= 100: set verbosity='high' to print the bands.

     highest occupied level (ev):     6.4252

!    total energy              =     -16.92311229 Ry
     estimated scf accuracy    <          7.6E-13 Ry

     The total energy is the sum of the following terms:
     one-electron contribution =       5.10175676 Ry
     hartree contribution      =       1.07881469 Ry
     xc contribution           =      -6.20392514 Ry
     ewald contribution        =     -16.89975860 Ry

     convergence has been achieved in   9 iterations

     Forces acting on atoms (cartesian axes, Ry/au):

     atom    1 type  1   force =     0.00000000    0.00000000    0.00000000
     atom    2 type  1   force =     0.00000000    0.00000000    0.00000000

     Total force =     0.000000     Total SCF correction =     0.000000


     Computing stress (Cartesian axis) and pressure

          total   stress  (Ry/bohr**3)                   (kbar)     P=       36.97
   0.00025132   0.00000000  -0.00000000           36.97        0.00       -0.00
   0.00000000   0.00025132   0.00000000            0.00       36.97        0.00
  -0.00000000   0.00000000   0.00025132           -0.00        0.00       36.97


     Writing all to output data dir /fastscratch/tsievers/QE_TMP_DIR/silicon_bench_singlecore_kpoints_50.save/

     init_run     :      9.04s CPU      9.17s WALL (       1 calls)
     electrons    :    168.04s CPU    171.51s WALL (       1 calls)
     forces       :      2.28s CPU      2.30s WALL (       1 calls)
     stress       :      9.30s CPU      9.34s WALL (       1 calls)

     Called by init_run:
     wfcinit      :      8.74s CPU      8.87s WALL (       1 calls)
     potinit      :      0.01s CPU      0.01s WALL (       1 calls)
     hinit0       :      0.17s CPU      0.17s WALL (       1 calls)

     Called by electrons:
     c_bands      :    149.20s CPU    152.25s WALL (      10 calls)
     sum_band     :     18.76s CPU     19.17s WALL (      10 calls)
     v_of_rho     :      0.07s CPU      0.08s WALL (      10 calls)
     mix_rho      :      0.01s CPU      0.01s WALL (      10 calls)

     Called by c_bands:
     init_us_2    :     11.97s CPU     12.20s WALL (   71461 calls)
     init_us_2:cp :     11.83s CPU     12.10s WALL (   71461 calls)
     cegterg      :    125.43s CPU    127.95s WALL (   31070 calls)

     Called by *egterg:
     cdiaghg      :      3.09s CPU      3.18s WALL (  123408 calls)
     h_psi        :    116.61s CPU    118.93s WALL (  129622 calls)
     g_psi        :      1.05s CPU      1.08s WALL (   95445 calls)

     Called by h_psi:
     h_psi:calbec :     11.34s CPU     11.56s WALL (  129622 calls)
     vloc_psi     :     92.49s CPU     94.34s WALL (  129622 calls)
     add_vuspsi   :     11.86s CPU     12.11s WALL (  129622 calls)

     General routines
     calbec       :     12.71s CPU     12.96s WALL (  145157 calls)
     fft          :      0.13s CPU      0.13s WALL (     125 calls)
     ffts         :      0.00s CPU      0.00s WALL (      10 calls)
     fftw         :     91.76s CPU     93.71s WALL (  993056 calls)

     Parallel routines

     PWSCF        :   3m 9.21s CPU   3m19.69s WALL


   This run was terminated on:  16:13:42  12Feb2022            

=------------------------------------------------------------------------------=
   JOB DONE.
=------------------------------------------------------------------------------=
