
     Program PWSCF v.7.0 starts on 14Jun2022 at 19:37:40 

     This program is part of the open-source Quantum ESPRESSO suite
     for quantum simulation of materials; please cite
         "P. Giannozzi et al., J. Phys.:Condens. Matter 21 395502 (2009);
         "P. Giannozzi et al., J. Phys.:Condens. Matter 29 465901 (2017);
         "P. Giannozzi et al., J. Chem. Phys. 152 154105 (2020);
          URL http://www.quantum-espresso.org", 
     in publications or presentations arising from this work. More details at
     http://www.quantum-espresso.org/quote

     Parallel version (MPI), running on    80 processors

     MPI processes distributed on     1 nodes
     K-points division:     npool     =       5
     R & G space division:  proc/nbgrp/npool/nimage =      16
     367193 MiB available memory on the printing compute node when the environment starts
 
     Waiting for input...
     Reading input from standard input

     Current dimensions of program PWSCF are:
     Max number of different atomic species (ntypx) = 10
     Max number of k-points (npk) =  40000
     Max angular momentum in pseudopotentials (lmaxx) =  4

     Subspace diagonalization in iterative solution of the eigenvalue problem:
     a serial algorithm will be used

 
     Parallelization info
     --------------------
     sticks:   dense  smooth     PW     G-vecs:    dense   smooth      PW
     Min          62      62     18                 1303     1303     215
     Max          63      63     19                 1306     1306     218
     Sum        1003    1003    301                20875    20875    3479
 
     Using Slab Decomposition
 


     bravais-lattice index     =            2
     lattice parameter (alat)  =      10.2000  a.u.
     unit-cell volume          =     265.3020 (a.u.)^3
     number of atoms/cell      =            2
     number of atomic types    =            1
     number of electrons       =         8.00
     number of Kohn-Sham states=            4
     kinetic-energy cutoff     =      70.0000  Ry
     charge density cutoff     =     280.0000  Ry
     scf convergence threshold =      1.0E-12
     mixing beta               =       0.7000
     number of iterations used =            8  plain     mixing
     Exchange-correlation= PBE
                           (   1   4   3   4   0   0   0)

     celldm(1)=  10.200000  celldm(2)=   0.000000  celldm(3)=   0.000000
     celldm(4)=   0.000000  celldm(5)=   0.000000  celldm(6)=   0.000000

     crystal axes: (cart. coord. in units of alat)
               a(1) = (  -0.500000   0.000000   0.500000 )  
               a(2) = (   0.000000   0.500000   0.500000 )  
               a(3) = (  -0.500000   0.500000   0.000000 )  

     reciprocal axes: (cart. coord. in units 2 pi/alat)
               b(1) = ( -1.000000 -1.000000  1.000000 )  
               b(2) = (  1.000000  1.000000  1.000000 )  
               b(3) = ( -1.000000  1.000000 -1.000000 )  


     PseudoPot. # 1 for Si read from file:
     ./pseudos/Si_pbe_v0.4.1.nc.sr.upf
     MD5 check sum: 02fab3f35e82123ef5bf1cb05d5b1a5e
     Pseudo is Norm-conserving + core correction, Zval =  4.0
     Generated using ONCVPSP code by D. R. Hamann
     Using radial grid of 1510 points,  6 beta functions with: 
                l(1) =   0
                l(2) =   0
                l(3) =   1
                l(4) =   1
                l(5) =   2
                l(6) =   2

     atomic species   valence    mass     pseudopotential
        Si             4.00    28.08600     Si( 1.00)

     48 Sym. Ops., with inversion, found (24 have fractional translation)



   Cartesian axes

     site n.     atom                  positions (alat units)
         1           Si  tau(   1) = (   0.0000000   0.0000000   0.0000000  )
         2           Si  tau(   2) = (   0.2500000   0.2500000   0.2500000  )

     number of k points=  1661

     Number of k-points >= 100: set verbosity='high' to print them.

     Dense  grid:    20875 G-vectors     FFT dimensions: (  40,  40,  40)

     Estimated max dynamical RAM per process >       5.69 MB

     Estimated total dynamical RAM >     435.16 MB

     Initial potential from superposition of free atoms

     starting charge       7.9988, renormalised to       8.0000
     Starting wfcs are    8 randomized atomic wfcs

     total cpu time spent up to now is        0.5 secs

     Self-consistent Calculation

     iteration #  1     ecut=    70.00 Ry     beta= 0.70
     Davidson diagonalization with overlap
     ethr =  1.00E-02,  avg # of iterations =  2.0

     Threshold (ethr) on eigenvalues was too large:
     Diagonalizing with lowered threshold

     Davidson diagonalization with overlap
     ethr =  5.86E-04,  avg # of iterations =  2.0

     total cpu time spent up to now is        1.8 secs

     total energy              =     -16.92149214 Ry
     estimated scf accuracy    <       0.05529166 Ry

     iteration #  2     ecut=    70.00 Ry     beta= 0.70
     Davidson diagonalization with overlap
     ethr =  6.91E-04,  avg # of iterations =  1.0

     total cpu time spent up to now is        2.3 secs

     total energy              =     -16.92319869 Ry
     estimated scf accuracy    <       0.00290933 Ry

     iteration #  3     ecut=    70.00 Ry     beta= 0.70
     Davidson diagonalization with overlap
     ethr =  3.64E-05,  avg # of iterations =  2.3

     total cpu time spent up to now is        3.0 secs

     total energy              =     -16.92386807 Ry
     estimated scf accuracy    <       0.00006653 Ry

     iteration #  4     ecut=    70.00 Ry     beta= 0.70
     Davidson diagonalization with overlap
     ethr =  8.32E-07,  avg # of iterations =  5.0

     total cpu time spent up to now is        4.1 secs

     total energy              =     -16.92395269 Ry
     estimated scf accuracy    <       0.00000026 Ry

     iteration #  5     ecut=    70.00 Ry     beta= 0.70
     Davidson diagonalization with overlap
     ethr =  3.31E-09,  avg # of iterations =  6.6

     total cpu time spent up to now is        5.5 secs

     total energy              =     -16.92395445 Ry
     estimated scf accuracy    <       0.00000001 Ry

     iteration #  6     ecut=    70.00 Ry     beta= 0.70
     Davidson diagonalization with overlap
     ethr =  1.32E-10,  avg # of iterations =  3.3

     total cpu time spent up to now is        6.4 secs

     total energy              =     -16.92395445 Ry
     estimated scf accuracy    <          1.1E-09 Ry

     iteration #  7     ecut=    70.00 Ry     beta= 0.70
     Davidson diagonalization with overlap
     ethr =  1.43E-11,  avg # of iterations =  3.2

     total cpu time spent up to now is        7.2 secs

     total energy              =     -16.92395445 Ry
     estimated scf accuracy    <          1.6E-10 Ry

     iteration #  8     ecut=    70.00 Ry     beta= 0.70
     Davidson diagonalization with overlap
     ethr =  2.06E-12,  avg # of iterations =  2.5

     total cpu time spent up to now is        7.9 secs

     End of self-consistent calculation

     Number of k-points >= 100: set verbosity='high' to print the bands.

     highest occupied level (ev):     6.4228

!    total energy              =     -16.92395445 Ry
     estimated scf accuracy    <          1.1E-13 Ry

     The total energy is the sum of the following terms:
     one-electron contribution =       5.10086349 Ry
     hartree contribution      =       1.07923925 Ry
     xc contribution           =      -6.20429862 Ry
     ewald contribution        =     -16.89975857 Ry

     convergence has been achieved in   8 iterations

     Writing all to output data dir QE_TMP_DIR/silicon.save/
 
     init_run     :      0.30s CPU      0.39s WALL (       1 calls)
     electrons    :      7.00s CPU      7.44s WALL (       1 calls)

     Called by init_run:
     wfcinit      :      0.27s CPU      0.31s WALL (       1 calls)
     potinit      :      0.00s CPU      0.00s WALL (       1 calls)
     hinit0       :      0.02s CPU      0.06s WALL (       1 calls)

     Called by electrons:
     c_bands      :      6.28s CPU      6.67s WALL (       9 calls)
     sum_band     :      0.70s CPU      0.74s WALL (       9 calls)
     v_of_rho     :      0.02s CPU      0.02s WALL (       9 calls)
     mix_rho      :      0.00s CPU      0.00s WALL (       9 calls)

     Called by c_bands:
     init_us_2    :      0.29s CPU      0.30s WALL (    6327 calls)
     init_us_2:cp :      0.27s CPU      0.29s WALL (    6327 calls)
     cegterg      :      4.62s CPU      4.92s WALL (    2997 calls)

     Called by *egterg:
     cdiaghg      :      0.49s CPU      0.53s WALL (   12539 calls)
     h_psi        :      3.80s CPU      4.06s WALL (   13205 calls)
     g_psi        :      0.02s CPU      0.02s WALL (    9875 calls)

     Called by h_psi:
     h_psi:calbec :      0.23s CPU      0.25s WALL (   13205 calls)
     vloc_psi     :      3.35s CPU      3.58s WALL (   13205 calls)
     add_vuspsi   :      0.12s CPU      0.13s WALL (   13205 calls)

     General routines
     calbec       :      0.20s CPU      0.22s WALL (   13205 calls)
     fft          :      0.02s CPU      0.06s WALL (      91 calls)
     ffts         :      0.00s CPU      0.00s WALL (       9 calls)
     fftw         :      3.41s CPU      3.64s WALL (   99574 calls)
 
     Parallel routines
 
     PWSCF        :      7.58s CPU      9.38s WALL

 
   This run was terminated on:  19:37:50  14Jun2022            

=------------------------------------------------------------------------------=
   JOB DONE.
=------------------------------------------------------------------------------=
