
     Program PHONON v.7.0 starts on  7Jun2022 at 13:51:40 

     This program is part of the open-source Quantum ESPRESSO suite
     for quantum simulation of materials; please cite
         "P. Giannozzi et al., J. Phys.:Condens. Matter 21 395502 (2009);
         "P. Giannozzi et al., J. Phys.:Condens. Matter 29 465901 (2017);
         "P. Giannozzi et al., J. Chem. Phys. 152 154105 (2020);
          URL http://www.quantum-espresso.org", 
     in publications or presentations arising from this work. More details at
     http://www.quantum-espresso.org/quote

     Parallel version (MPI), running on    36 processors

     MPI processes distributed on     2 nodes
     path-images division:  nimage    =       2
     R & G space division:  proc/nbgrp/npool/nimage =      18
     32123 MiB available memory on the printing compute node when the environment starts
 

     Reading xml data from directory:

     /fastscratch/tsievers/QE_TMP_DIR/TaS2_24_ph_bench_nimages_2_n_procs_36_0.save/

     IMPORTANT: XC functional enforced from input :
     Exchange-correlation= PBE
                           (   1   4   3   4   0   0   0)
     Any further DFT definition will be discarded
     Please, verify this is what you really want

 
     Parallelization info
     --------------------
     sticks:   dense  smooth     PW     G-vecs:    dense   smooth      PW
     Min          60      31      9                 7329     2593     419
     Max          62      32     10                 7342     2605     434
     Sum        1099     559    163               132031    46753    7647
 
     Using Slab Decomposition
 
 ----2D----2D----2D----2D----2D----2D----2D----2D----2D----2D----2D----2D
  The code is running with the 2D cutoff
  Please refer to:
  Sohier, T., Calandra, M., & Mauri, F. (2017), 
  Density functional perturbation theory for gated two-dimensional heterostructu
 res:
  Theoretical developments and application to flexural phonons in graphene.
  Physical Review B, 96(7), 75448. https://doi.org/10.1103/PhysRevB.96.075448
 ----2D----2D----2D----2D----2D----2D----2D----2D----2D----2D----2D----2D
     Reading collected, re-writing distributed wavefunctions


     Dynamical matrices for (12,12, 1)  uniform grid of q-points
     (  19 q-points):
       N         xq(1)         xq(2)         xq(3) 
       1   0.000000000   0.000000000   0.000000000
       2   0.000000000   0.096225045   0.000000000
       3   0.000000000   0.192450090   0.000000000
       4   0.000000000   0.288675135   0.000000000
       5   0.000000000   0.384900179   0.000000000
       6   0.000000000   0.481125224   0.000000000
       7   0.000000000  -0.577350269   0.000000000
       8   0.083333333   0.144337567   0.000000000
       9   0.083333333   0.240562612   0.000000000
      10   0.083333333   0.336787657   0.000000000
      11   0.083333333   0.433012702   0.000000000
      12   0.083333333   0.529237747   0.000000000
      13   0.166666667   0.288675135   0.000000000
      14   0.166666667   0.384900179   0.000000000
      15   0.166666667   0.481125224   0.000000000
      16   0.166666667   0.577350269   0.000000000
      17   0.250000000   0.433012702   0.000000000
      18   0.250000000   0.529237747   0.000000000
      19   0.333333333   0.577350269   0.000000000

     Saving dvscf to file. Distribute only q points, not irreducible represetations.

      Image parallelization. There are  2 images and     2 representations
      The estimated total work is   870 self-consistent (scf) runs
      I am image number     1 and my work is about  440 scf runs. I calculate: 
      q point number    12, representations:
       0 1 2 3 4 5 6 7 8 9
      q point number    13, representations:
       0 1 2 3 4 5 6 7 8 9
      q point number    14, representations:
       0 1 2 3 4 5 6 7 8 9
      q point number    15, representations:
       0 1 2 3 4 5 6 7 8 9
      q point number    16, representations:
       0 1 2 3 4 5 6 7 8 9
      q point number    17, representations:
       0 1 2 3 4 5 6 7 8 9
      q point number    18, representations:
       0 1 2 3 4 5 6 7 8 9
      q point number    19, representations:
       0 1 2 3 4 5 6 7 8 9

     Calculation of q =    0.0833333   0.5292377   0.0000000

     Subspace diagonalization in iterative solution of the eigenvalue problem:
     a serial algorithm will be used

 
     Parallelization info
     --------------------
     sticks:   dense  smooth     PW     G-vecs:    dense   smooth      PW
     Min          60      31     10                 7329     2593     508
     Max          62      32     11                 7342     2605     525
     Sum        1099     559    187               132031    46753    9285
 
     Using Slab Decomposition
 

     Title: 
     TaS2                                                                       


     bravais-lattice index     =            4
     lattice parameter (alat)  =       6.3117  a.u.
     unit-cell volume          =     977.9382 (a.u.)^3
     number of atoms/cell      =            3
     number of atomic types    =            2
     number of electrons       =        17.00
     number of Kohn-Sham states=           13
     kinetic-energy cutoff     =      50.0000  Ry
     charge density cutoff     =     400.0000  Ry
     Exchange-correlation= PBE
                           (   1   4   3   4   0   0   0)

     celldm(1)=   6.311685  celldm(2)=   0.000000  celldm(3)=   4.491018
     celldm(4)=   0.000000  celldm(5)=   0.000000  celldm(6)=   0.000000

     crystal axes: (cart. coord. in units of alat)
               a(1) = (   1.000000   0.000000   0.000000 )  
               a(2) = (  -0.500000   0.866025   0.000000 )  
               a(3) = (   0.000000   0.000000   4.491018 )  

     reciprocal axes: (cart. coord. in units 2 pi/alat)
               b(1) = (  1.000000  0.577350  0.000000 )  
               b(2) = (  0.000000  1.154701  0.000000 )  
               b(3) = (  0.000000  0.000000  0.222667 )  


     PseudoPot. # 1 for Ta read from file:
     /fastscratch/tsievers/TaS2_24_ph_benchmark_images//pseudos/Ta.pbe-hgh.UPF
     MD5 check sum: 129c51a9a4223465c43ca8d238d17e53
     Pseudo is Norm-conserving, Zval =  5.0
     Generated in analytical, separable form
     Using radial grid of 1273 points,  6 beta functions with: 
                l(1) =   0
                l(2) =   0
                l(3) =   1
                l(4) =   1
                l(5) =   2
                l(6) =   2

     PseudoPot. # 2 for S  read from file:
     /fastscratch/tsievers/TaS2_24_ph_benchmark_images//pseudos/S.pbe-hgh.UPF
     MD5 check sum: 3a21e384b95a7cc84d045d3bcc0c4ba8
     Pseudo is Norm-conserving, Zval =  6.0
     Generated in analytical, separable form
     Using radial grid of 1151 points,  3 beta functions with: 
                l(1) =   0
                l(2) =   0
                l(3) =   1

     atomic species   valence    mass     pseudopotential
        Ta             5.00   180.95000     Ta( 1.00)
        S              6.00    32.06000     S ( 1.00)

     12 Sym. Ops. (no inversion) found



   Cartesian axes

     site n.     atom                  positions (alat units)
         1           S   tau(   1) = (  -0.0000000   0.5773503   0.4679048  )
         2           Ta  tau(   2) = (   0.0000000   0.0000000   0.0000000  )
         3           S   tau(   3) = (  -0.0000000   0.5773503  -0.4679048  )

     number of k points=  1152  Marzari-Vanderbilt smearing, width (Ry)=  0.0060

     Number of k-points >= 100: set verbosity='high' to print them.

     Dense  grid:   132031 G-vectors     FFT dimensions: (  45,  45, 192)

     Smooth grid:    46753 G-vectors     FFT dimensions: (  30,  30, 128)

     Estimated max dynamical RAM per process >       6.89 MB

     Estimated total dynamical RAM >     123.94 MB
 ----2D----2D----2D----2D----2D----2D----2D----2D----2D----2D----2D----2D
  The code is running with the 2D cutoff
  Please refer to:
  Sohier, T., Calandra, M., & Mauri, F. (2017), 
  Density functional perturbation theory for gated two-dimensional heterostructu
 res:
  Theoretical developments and application to flexural phonons in graphene.
  Physical Review B, 96(7), 75448. https://doi.org/10.1103/PhysRevB.96.075448
 ----2D----2D----2D----2D----2D----2D----2D----2D----2D----2D----2D----2D

     The potential is recalculated from file :
     /fastscratch/tsievers/QE_TMP_DIR/_ph1/TaS2_24_ph_bench_nimages_2_n_procs_36_0.q_12/TaS2_24_ph_bench_nimages_2_n_procs_36_0.save/charge-density

     Starting wfcs are   27 atomic wfcs

     Band Structure Calculation
     Davidson diagonalization with overlap

     ethr =  5.88E-11,  avg # of iterations = 20.5

     total cpu time spent up to now is      121.3 secs

     End of band structure calculation

     Number of k-points >= 100: set verbosity='high' to print the bands.

     the Fermi energy is    -5.8804 ev

     Writing config to output data dir /fastscratch/tsievers/QE_TMP_DIR/_ph1/TaS2_24_ph_bench_nimages_2_n_procs_36_0.q_12/TaS2_24_ph_bench_nimages_2_n_procs_36_0.save/

     TaS2                                                                       

     bravais-lattice index     =            4
     lattice parameter (alat)  =       6.3117  a.u.
     unit-cell volume          =     977.9382 (a.u.)^3
     number of atoms/cell      =            3
     number of atomic types    =            2
     kinetic-energy cut-off    =      50.0000  Ry
     charge density cut-off    =     400.0000  Ry
     convergence threshold     =      1.0E-21
     beta                      =       0.7000
     number of iterations used =            4
     Exchange-correlation= PBE
                           (   1   4   3   4   0   0   0)


     celldm(1)=    6.31169  celldm(2)=    0.00000  celldm(3)=    4.49102
     celldm(4)=    0.00000  celldm(5)=    0.00000  celldm(6)=    0.00000

     crystal axes: (cart. coord. in units of alat)
               a(1) = (  1.0000  0.0000  0.0000 )  
               a(2) = ( -0.5000  0.8660  0.0000 )  
               a(3) = (  0.0000  0.0000  4.4910 )  

     reciprocal axes: (cart. coord. in units 2 pi/alat)
               b(1) = (  1.0000  0.5774  0.0000 )  
               b(2) = (  0.0000  1.1547  0.0000 )  
               b(3) = (  0.0000  0.0000  0.2227 )  


     Atoms inside the unit cell: 

     Cartesian axes

     site n.  atom      mass           positions (alat units)
        1     S   32.0600   tau(    1) = (   -0.00000    0.57735    0.46790  )
        2     Ta 180.9500   tau(    2) = (    0.00000    0.00000    0.00000  )
        3     S   32.0600   tau(    3) = (   -0.00000    0.57735   -0.46790  )

     Computing dynamical matrix for 
                    q = (   0.0833333   0.5292377   0.0000000 )
 
      2 Sym.Ops. (no q -> -q+G )


     G cutoff =  403.6370  (   7330 G-vectors)     FFT grid: ( 45, 45,192)
     G cutoff =  201.8185  (   2599 G-vectors)  smooth grid: ( 30, 30,128)

     number of k points=  1152  Marzari-Vanderbilt smearing, width (Ry)=  0.0060

     PseudoPot. # 1 for Ta read from file:
     /fastscratch/tsievers/TaS2_24_ph_benchmark_images//pseudos/Ta.pbe-hgh.UPF
     MD5 check sum: 129c51a9a4223465c43ca8d238d17e53
     Pseudo is Norm-conserving, Zval =  5.0
     Generated in analytical, separable form
     Using radial grid of 1273 points,  6 beta functions with: 
                l(1) =   0
                l(2) =   0
                l(3) =   1
                l(4) =   1
                l(5) =   2
                l(6) =   2

     PseudoPot. # 2 for S  read from file:
     /fastscratch/tsievers/TaS2_24_ph_benchmark_images//pseudos/S.pbe-hgh.UPF
     MD5 check sum: 3a21e384b95a7cc84d045d3bcc0c4ba8
     Pseudo is Norm-conserving, Zval =  6.0
     Generated in analytical, separable form
     Using radial grid of 1151 points,  3 beta functions with: 
                l(1) =   0
                l(2) =   0
                l(3) =   1

     Mode symmetry, C_s (m)     point group:


     Atomic displacements:
     There are    9 irreducible representations

     Representation     1      1 modes -  To be done

     Representation     2      1 modes -  To be done

     Representation     3      1 modes -  To be done

     Representation     4      1 modes -  To be done

     Representation     5      1 modes -  To be done

     Representation     6      1 modes -  To be done

     Representation     7      1 modes -  To be done

     Representation     8      1 modes -  To be done

     Representation     9      1 modes -  To be done



     Alpha used in Ewald sum =   2.8000
     PHONON       :   2m16.42s CPU   2m38.55s WALL



     Representation #   1 mode #   1

     Self-consistent Calculation

      iter #   1 total cpu time :   176.3 secs   av.it.:   8.9
      thresh= 1.000E-02 alpha_mix =  0.700 |ddv_scf|^2 =  4.730E-06

      iter #   2 total cpu time :   226.1 secs   av.it.:  17.0
      thresh= 2.175E-04 alpha_mix =  0.700 |ddv_scf|^2 =  6.021E-05

      iter #   3 total cpu time :   263.1 secs   av.it.:  14.8
      thresh= 7.759E-04 alpha_mix =  0.700 |ddv_scf|^2 =  1.878E-07

      iter #   4 total cpu time :   301.2 secs   av.it.:  15.6
      thresh= 4.334E-05 alpha_mix =  0.700 |ddv_scf|^2 =  7.695E-09

      iter #   5 total cpu time :   339.7 secs   av.it.:  16.0
      thresh= 8.772E-06 alpha_mix =  0.700 |ddv_scf|^2 =  8.404E-10

      iter #   6 total cpu time :   380.7 secs   av.it.:  16.1
      thresh= 2.899E-06 alpha_mix =  0.700 |ddv_scf|^2 =  7.372E-11

      iter #   7 total cpu time :   417.1 secs   av.it.:  16.5
      thresh= 8.586E-07 alpha_mix =  0.700 |ddv_scf|^2 =  1.017E-11

      iter #   8 total cpu time :   468.8 secs   av.it.:  16.2
      thresh= 3.190E-07 alpha_mix =  0.700 |ddv_scf|^2 =  4.003E-12

      iter #   9 total cpu time :   522.2 secs   av.it.:  16.2
      thresh= 2.001E-07 alpha_mix =  0.700 |ddv_scf|^2 =  9.831E-12

      iter #  10 total cpu time :   565.5 secs   av.it.:  15.2
      thresh= 3.135E-07 alpha_mix =  0.700 |ddv_scf|^2 =  1.149E-12

      iter #  11 total cpu time :   599.8 secs   av.it.:  15.3
      thresh= 1.072E-07 alpha_mix =  0.700 |ddv_scf|^2 =  1.079E-13

      iter #  12 total cpu time :   649.0 secs   av.it.:  15.8
      thresh= 3.285E-08 alpha_mix =  0.700 |ddv_scf|^2 =  1.218E-14

      iter #  13 total cpu time :   698.1 secs   av.it.:  15.8
      thresh= 1.104E-08 alpha_mix =  0.700 |ddv_scf|^2 =  2.123E-15

      iter #  14 total cpu time :   748.4 secs   av.it.:  16.0
      thresh= 4.607E-09 alpha_mix =  0.700 |ddv_scf|^2 =  3.902E-16

      iter #  15 total cpu time :   791.0 secs   av.it.:  17.4
      thresh= 1.975E-09 alpha_mix =  0.700 |ddv_scf|^2 =  2.982E-15

      iter #  16 total cpu time :   832.7 secs   av.it.:  14.8
      thresh= 5.461E-09 alpha_mix =  0.700 |ddv_scf|^2 =  2.397E-17

      iter #  17 total cpu time :   878.9 secs   av.it.:  16.9
      thresh= 4.896E-10 alpha_mix =  0.700 |ddv_scf|^2 =  3.522E-17

      iter #  18 total cpu time :   926.2 secs   av.it.:  15.7
      thresh= 5.934E-10 alpha_mix =  0.700 |ddv_scf|^2 =  5.822E-18

      iter #  19 total cpu time :   966.8 secs   av.it.:  15.6
      thresh= 2.413E-10 alpha_mix =  0.700 |ddv_scf|^2 =  1.816E-19

      iter #  20 total cpu time :  1030.4 secs   av.it.:  16.9
      thresh= 4.261E-11 alpha_mix =  0.700 |ddv_scf|^2 =  1.660E-19

      iter #  21 total cpu time :  1073.5 secs   av.it.:  16.0
      thresh= 4.074E-11 alpha_mix =  0.700 |ddv_scf|^2 =  6.997E-20

      iter #  22 total cpu time :  1130.5 secs   av.it.:  16.3
      thresh= 2.645E-11 alpha_mix =  0.700 |ddv_scf|^2 =  1.329E-19

      iter #  23 total cpu time :  1166.1 secs   av.it.:  15.4
      thresh= 3.645E-11 alpha_mix =  0.700 |ddv_scf|^2 =  8.108E-21

      iter #  24 total cpu time :  1213.1 secs   av.it.:  15.9
      thresh= 9.004E-12 alpha_mix =  0.700 |ddv_scf|^2 =  2.099E-21

      iter #  25 total cpu time :  1248.0 secs   av.it.:  15.8
      thresh= 4.581E-12 alpha_mix =  0.700 |ddv_scf|^2 =  1.276E-22

     End of self-consistent calculation

     Convergence has been achieved 


     Representation #   2 mode #   2

     Self-consistent Calculation

      iter #   1 total cpu time :  1275.9 secs   av.it.:   7.5
      thresh= 1.000E-02 alpha_mix =  0.700 |ddv_scf|^2 =  1.044E-07

      iter #   2 total cpu time :  1328.2 secs   av.it.:  17.1
      thresh= 3.231E-05 alpha_mix =  0.700 |ddv_scf|^2 =  8.492E-07

      iter #   3 total cpu time :  1369.4 secs   av.it.:  15.0
      thresh= 9.215E-05 alpha_mix =  0.700 |ddv_scf|^2 =  2.976E-08

      iter #   4 total cpu time :  1405.3 secs   av.it.:  15.7
      thresh= 1.725E-05 alpha_mix =  0.700 |ddv_scf|^2 =  1.629E-09

      iter #   5 total cpu time :  1457.8 secs   av.it.:  16.0
      thresh= 4.036E-06 alpha_mix =  0.700 |ddv_scf|^2 =  1.055E-10

      iter #   6 total cpu time :  1493.1 secs   av.it.:  16.3
      thresh= 1.027E-06 alpha_mix =  0.700 |ddv_scf|^2 =  6.200E-12

      iter #   7 total cpu time :  1531.3 secs   av.it.:  17.1
      thresh= 2.490E-07 alpha_mix =  0.700 |ddv_scf|^2 =  3.529E-12

      iter #   8 total cpu time :  1568.4 secs   av.it.:  16.3
      thresh= 1.879E-07 alpha_mix =  0.700 |ddv_scf|^2 =  6.385E-13

      iter #   9 total cpu time :  1611.1 secs   av.it.:  16.2
      thresh= 7.990E-08 alpha_mix =  0.700 |ddv_scf|^2 =  8.915E-13

      iter #  10 total cpu time :  1666.5 secs   av.it.:  15.5
      thresh= 9.442E-08 alpha_mix =  0.700 |ddv_scf|^2 =  1.800E-13

      iter #  11 total cpu time :  1708.7 secs   av.it.:  16.0
      thresh= 4.243E-08 alpha_mix =  0.700 |ddv_scf|^2 =  3.900E-14

      iter #  12 total cpu time :  1752.9 secs   av.it.:  16.2
      thresh= 1.975E-08 alpha_mix =  0.700 |ddv_scf|^2 =  4.610E-14

      iter #  13 total cpu time :  1785.9 secs   av.it.:  15.2
      thresh= 2.147E-08 alpha_mix =  0.700 |ddv_scf|^2 =  4.755E-15

      iter #  14 total cpu time :  1829.6 secs   av.it.:  16.1
      thresh= 6.896E-09 alpha_mix =  0.700 |ddv_scf|^2 =  7.421E-16

      iter #  15 total cpu time :  1869.4 secs   av.it.:  17.0
      thresh= 2.724E-09 alpha_mix =  0.700 |ddv_scf|^2 =  2.476E-15

      iter #  16 total cpu time :  1900.7 secs   av.it.:  15.3
      thresh= 4.976E-09 alpha_mix =  0.700 |ddv_scf|^2 =  6.015E-16

      iter #  17 total cpu time :  1943.4 secs   av.it.:  15.6
      thresh= 2.453E-09 alpha_mix =  0.700 |ddv_scf|^2 =  9.723E-17

      iter #  18 total cpu time :  1976.1 secs   av.it.:  16.3
      thresh= 9.860E-10 alpha_mix =  0.700 |ddv_scf|^2 =  1.441E-16

      iter #  19 total cpu time :  2034.0 secs   av.it.:  15.3
      thresh= 1.200E-09 alpha_mix =  0.700 |ddv_scf|^2 =  2.427E-17

      iter #  20 total cpu time :  2097.1 secs   av.it.:  15.7
      thresh= 4.927E-10 alpha_mix =  0.700 |ddv_scf|^2 =  1.941E-18

      iter #  21 total cpu time :  2165.7 secs   av.it.:  16.8
      thresh= 1.393E-10 alpha_mix =  0.700 |ddv_scf|^2 =  8.419E-19

      iter #  22 total cpu time :  2201.1 secs   av.it.:  16.9
      thresh= 9.175E-11 alpha_mix =  0.700 |ddv_scf|^2 =  4.552E-18

      iter #  23 total cpu time :  2266.9 secs   av.it.:  15.1
      thresh= 2.134E-10 alpha_mix =  0.700 |ddv_scf|^2 =  5.361E-19

      iter #  24 total cpu time :  2313.5 secs   av.it.:  15.4
      thresh= 7.322E-11 alpha_mix =  0.700 |ddv_scf|^2 =  6.231E-20

      iter #  25 total cpu time :  2353.4 secs   av.it.:  16.2
      thresh= 2.496E-11 alpha_mix =  0.700 |ddv_scf|^2 =  1.051E-19

      iter #  26 total cpu time :  2398.4 secs   av.it.:  15.5
      thresh= 3.243E-11 alpha_mix =  0.700 |ddv_scf|^2 =  8.536E-21

      iter #  27 total cpu time :  2454.5 secs   av.it.:  16.1
      thresh= 9.239E-12 alpha_mix =  0.700 |ddv_scf|^2 =  1.485E-21

      iter #  28 total cpu time :  2498.9 secs   av.it.:  16.3
      thresh= 3.854E-12 alpha_mix =  0.700 |ddv_scf|^2 =  5.403E-22

     End of self-consistent calculation

     Convergence has been achieved 


     Representation #   3 mode #   3

     Self-consistent Calculation

      iter #   1 total cpu time :  2516.8 secs   av.it.:   8.5
      thresh= 1.000E-02 alpha_mix =  0.700 |ddv_scf|^2 =  5.112E-07

      iter #   2 total cpu time :  2590.7 secs   av.it.:  16.8
      thresh= 7.150E-05 alpha_mix =  0.700 |ddv_scf|^2 =  6.291E-07

      iter #   3 total cpu time :  2668.7 secs   av.it.:  15.8
      thresh= 7.932E-05 alpha_mix =  0.700 |ddv_scf|^2 =  1.166E-07

      iter #   4 total cpu time :  2722.5 secs   av.it.:  15.3
      thresh= 3.414E-05 alpha_mix =  0.700 |ddv_scf|^2 =  2.853E-08

      iter #   5 total cpu time :  2792.4 secs   av.it.:  15.4
      thresh= 1.689E-05 alpha_mix =  0.700 |ddv_scf|^2 =  1.993E-09

      iter #   6 total cpu time :  2820.0 secs   av.it.:  16.0
      thresh= 4.464E-06 alpha_mix =  0.700 |ddv_scf|^2 =  1.128E-10

      iter #   7 total cpu time :  2894.6 secs   av.it.:  16.8
      thresh= 1.062E-06 alpha_mix =  0.700 |ddv_scf|^2 =  1.515E-11

      iter #   8 total cpu time :  2994.0 secs   av.it.:  16.3
      thresh= 3.893E-07 alpha_mix =  0.700 |ddv_scf|^2 =  4.884E-13

      iter #   9 total cpu time :  3027.0 secs   av.it.:  16.9
      thresh= 6.989E-08 alpha_mix =  0.700 |ddv_scf|^2 =  9.328E-13

      iter #  10 total cpu time :  3074.3 secs   av.it.:  15.6
      thresh= 9.658E-08 alpha_mix =  0.700 |ddv_scf|^2 =  4.321E-13

      iter #  11 total cpu time :  3119.7 secs   av.it.:  15.3
      thresh= 6.574E-08 alpha_mix =  0.700 |ddv_scf|^2 =  5.099E-14

      iter #  12 total cpu time :  3166.2 secs   av.it.:  15.6
      thresh= 2.258E-08 alpha_mix =  0.700 |ddv_scf|^2 =  6.061E-15

      iter #  13 total cpu time :  3199.6 secs   av.it.:  15.9
      thresh= 7.785E-09 alpha_mix =  0.700 |ddv_scf|^2 =  6.020E-15

      iter #  14 total cpu time :  3251.0 secs   av.it.:  15.2
      thresh= 7.759E-09 alpha_mix =  0.700 |ddv_scf|^2 =  3.471E-16

      iter #  15 total cpu time :  3309.3 secs   av.it.:  16.5
      thresh= 1.863E-09 alpha_mix =  0.700 |ddv_scf|^2 =  1.781E-16

      iter #  16 total cpu time :  3352.3 secs   av.it.:  15.8
      thresh= 1.334E-09 alpha_mix =  0.700 |ddv_scf|^2 =  2.946E-17

      iter #  17 total cpu time :  3402.8 secs   av.it.:  16.3
      thresh= 5.428E-10 alpha_mix =  0.700 |ddv_scf|^2 =  2.270E-17

      iter #  18 total cpu time :  3451.9 secs   av.it.:  16.0
      thresh= 4.765E-10 alpha_mix =  0.700 |ddv_scf|^2 =  1.920E-17

      iter #  19 total cpu time :  3499.4 secs   av.it.:  15.5
      thresh= 4.381E-10 alpha_mix =  0.700 |ddv_scf|^2 =  6.055E-18

      iter #  20 total cpu time :  3542.6 secs   av.it.:  15.3
      thresh= 2.461E-10 alpha_mix =  0.700 |ddv_scf|^2 =  7.205E-19

      iter #  21 total cpu time :  3614.7 secs   av.it.:  15.7
      thresh= 8.488E-11 alpha_mix =  0.700 |ddv_scf|^2 =  1.199E-19

      iter #  22 total cpu time :  3661.7 secs   av.it.:  16.6
      thresh= 3.462E-11 alpha_mix =  0.700 |ddv_scf|^2 =  2.270E-19

      iter #  23 total cpu time :  3717.7 secs   av.it.:  15.3
      thresh= 4.765E-11 alpha_mix =  0.700 |ddv_scf|^2 =  9.313E-21

      iter #  24 total cpu time :  3761.7 secs   av.it.:  16.7
      thresh= 9.650E-12 alpha_mix =  0.700 |ddv_scf|^2 =  2.162E-20

      iter #  25 total cpu time :  3798.1 secs   av.it.:  15.1
      thresh= 1.470E-11 alpha_mix =  0.700 |ddv_scf|^2 =  9.045E-22

     End of self-consistent calculation

     Convergence has been achieved 


     Representation #   4 mode #   4

     Self-consistent Calculation

      iter #   1 total cpu time :  3825.9 secs   av.it.:   8.2
      thresh= 1.000E-02 alpha_mix =  0.700 |ddv_scf|^2 =  1.104E-06

      iter #   2 total cpu time :  3887.4 secs   av.it.:  17.0
      thresh= 1.051E-04 alpha_mix =  0.700 |ddv_scf|^2 =  7.290E-06

      iter #   3 total cpu time :  3926.8 secs   av.it.:  15.1
      thresh= 2.700E-04 alpha_mix =  0.700 |ddv_scf|^2 =  6.080E-07

      iter #   4 total cpu time :  3964.5 secs   av.it.:  15.2
      thresh= 7.798E-05 alpha_mix =  0.700 |ddv_scf|^2 =  1.636E-09

      iter #   5 total cpu time :  4000.4 secs   av.it.:  16.4
      thresh= 4.045E-06 alpha_mix =  0.700 |ddv_scf|^2 =  2.056E-10

      iter #   6 total cpu time :  4040.4 secs   av.it.:  16.2
      thresh= 1.434E-06 alpha_mix =  0.700 |ddv_scf|^2 =  8.944E-12

      iter #   7 total cpu time :  4075.3 secs   av.it.:  16.5
      thresh= 2.991E-07 alpha_mix =  0.700 |ddv_scf|^2 =  1.540E-12

      iter #   8 total cpu time :  4115.8 secs   av.it.:  16.4
      thresh= 1.241E-07 alpha_mix =  0.700 |ddv_scf|^2 =  1.560E-12

      iter #   9 total cpu time :  4154.0 secs   av.it.:  15.6
      thresh= 1.249E-07 alpha_mix =  0.700 |ddv_scf|^2 =  6.344E-13

      iter #  10 total cpu time :  4205.9 secs   av.it.:  15.9
      thresh= 7.965E-08 alpha_mix =  0.700 |ddv_scf|^2 =  6.339E-13

      iter #  11 total cpu time :  4239.3 secs   av.it.:  15.1
      thresh= 7.962E-08 alpha_mix =  0.700 |ddv_scf|^2 =  8.779E-15

      iter #  12 total cpu time :  4285.7 secs   av.it.:  17.0
      thresh= 9.370E-09 alpha_mix =  0.700 |ddv_scf|^2 =  7.793E-15

      iter #  13 total cpu time :  4329.2 secs   av.it.:  16.3
      thresh= 8.828E-09 alpha_mix =  0.700 |ddv_scf|^2 =  1.765E-15

      iter #  14 total cpu time :  4393.4 secs   av.it.:  16.1
      thresh= 4.201E-09 alpha_mix =  0.700 |ddv_scf|^2 =  1.144E-15

      iter #  15 total cpu time :  4435.2 secs   av.it.:  16.0
      thresh= 3.382E-09 alpha_mix =  0.700 |ddv_scf|^2 =  1.425E-15

      iter #  16 total cpu time :  4489.9 secs   av.it.:  15.6
      thresh= 3.775E-09 alpha_mix =  0.700 |ddv_scf|^2 =  1.486E-15

      iter #  17 total cpu time :  4553.6 secs   av.it.:  15.0
      thresh= 3.855E-09 alpha_mix =  0.700 |ddv_scf|^2 =  4.247E-17

      iter #  18 total cpu time :  4606.2 secs   av.it.:  16.5
      thresh= 6.517E-10 alpha_mix =  0.700 |ddv_scf|^2 =  2.586E-17

      iter #  19 total cpu time :  4661.9 secs   av.it.:  15.9
      thresh= 5.085E-10 alpha_mix =  0.700 |ddv_scf|^2 =  5.315E-18

      iter #  20 total cpu time :  4728.1 secs   av.it.:  16.1
      thresh= 2.305E-10 alpha_mix =  0.700 |ddv_scf|^2 =  1.674E-18

      iter #  21 total cpu time :  4793.8 secs   av.it.:  16.6
      thresh= 1.294E-10 alpha_mix =  0.700 |ddv_scf|^2 =  3.536E-18

      iter #  22 total cpu time :  4834.3 secs   av.it.:  15.3
      thresh= 1.880E-10 alpha_mix =  0.700 |ddv_scf|^2 =  1.190E-18

      iter #  23 total cpu time :  4876.6 secs   av.it.:  16.1
      thresh= 1.091E-10 alpha_mix =  0.700 |ddv_scf|^2 =  7.757E-19

      iter #  24 total cpu time :  4918.9 secs   av.it.:  15.8
      thresh= 8.808E-11 alpha_mix =  0.700 |ddv_scf|^2 =  8.050E-20

      iter #  25 total cpu time :  4955.4 secs   av.it.:  15.8
      thresh= 2.837E-11 alpha_mix =  0.700 |ddv_scf|^2 =  2.092E-20

      iter #  26 total cpu time :  4998.1 secs   av.it.:  15.6
      thresh= 1.446E-11 alpha_mix =  0.700 |ddv_scf|^2 =  2.782E-21

      iter #  27 total cpu time :  5038.4 secs   av.it.:  16.0
      thresh= 5.275E-12 alpha_mix =  0.700 |ddv_scf|^2 =  1.200E-21

      iter #  28 total cpu time :  5079.6 secs   av.it.:  16.5
      thresh= 3.464E-12 alpha_mix =  0.700 |ddv_scf|^2 =  1.995E-21

      iter #  29 total cpu time :  5111.1 secs   av.it.:  15.4
      thresh= 4.467E-12 alpha_mix =  0.700 |ddv_scf|^2 =  1.004E-22

     End of self-consistent calculation

     Convergence has been achieved 


     Representation #   5 mode #   5

     Self-consistent Calculation

      iter #   1 total cpu time :  5146.4 secs   av.it.:   8.5
      thresh= 1.000E-02 alpha_mix =  0.700 |ddv_scf|^2 =  1.029E-06

      iter #   2 total cpu time :  5198.2 secs   av.it.:  17.1
      thresh= 1.014E-04 alpha_mix =  0.700 |ddv_scf|^2 =  1.193E-05

      iter #   3 total cpu time :  5233.4 secs   av.it.:  14.8
      thresh= 3.454E-04 alpha_mix =  0.700 |ddv_scf|^2 =  7.282E-08

      iter #   4 total cpu time :  5272.4 secs   av.it.:  15.9
      thresh= 2.699E-05 alpha_mix =  0.700 |ddv_scf|^2 =  3.552E-09

      iter #   5 total cpu time :  5319.8 secs   av.it.:  16.1
      thresh= 5.960E-06 alpha_mix =  0.700 |ddv_scf|^2 =  4.105E-10

      iter #   6 total cpu time :  5354.7 secs   av.it.:  16.1
      thresh= 2.026E-06 alpha_mix =  0.700 |ddv_scf|^2 =  3.418E-11

      iter #   7 total cpu time :  5396.0 secs   av.it.:  16.9
      thresh= 5.846E-07 alpha_mix =  0.700 |ddv_scf|^2 =  9.868E-12

      iter #   8 total cpu time :  5435.5 secs   av.it.:  16.3
      thresh= 3.141E-07 alpha_mix =  0.700 |ddv_scf|^2 =  2.044E-12

      iter #   9 total cpu time :  5474.7 secs   av.it.:  16.0
      thresh= 1.430E-07 alpha_mix =  0.700 |ddv_scf|^2 =  3.026E-12

      iter #  10 total cpu time :  5513.2 secs   av.it.:  15.3
      thresh= 1.739E-07 alpha_mix =  0.700 |ddv_scf|^2 =  1.815E-13

      iter #  11 total cpu time :  5554.2 secs   av.it.:  16.2
      thresh= 4.261E-08 alpha_mix =  0.700 |ddv_scf|^2 =  2.164E-13

      iter #  12 total cpu time :  5587.3 secs   av.it.:  15.1
      thresh= 4.652E-08 alpha_mix =  0.700 |ddv_scf|^2 =  1.210E-14

      iter #  13 total cpu time :  5628.9 secs   av.it.:  16.0
      thresh= 1.100E-08 alpha_mix =  0.700 |ddv_scf|^2 =  2.039E-15

      iter #  14 total cpu time :  5669.3 secs   av.it.:  16.3
      thresh= 4.516E-09 alpha_mix =  0.700 |ddv_scf|^2 =  5.553E-16

      iter #  15 total cpu time :  5707.6 secs   av.it.:  16.6
      thresh= 2.356E-09 alpha_mix =  0.700 |ddv_scf|^2 =  2.063E-15

      iter #  16 total cpu time :  5743.7 secs   av.it.:  15.1
      thresh= 4.542E-09 alpha_mix =  0.700 |ddv_scf|^2 =  1.208E-16

      iter #  17 total cpu time :  5778.6 secs   av.it.:  16.7
      thresh= 1.099E-09 alpha_mix =  0.700 |ddv_scf|^2 =  4.716E-16

      iter #  18 total cpu time :  5811.0 secs   av.it.:  15.0
      thresh= 2.172E-09 alpha_mix =  0.700 |ddv_scf|^2 =  1.462E-17

      iter #  19 total cpu time :  5847.6 secs   av.it.:  16.4
      thresh= 3.824E-10 alpha_mix =  0.700 |ddv_scf|^2 =  8.639E-18

      iter #  20 total cpu time :  5882.1 secs   av.it.:  16.0
      thresh= 2.939E-10 alpha_mix =  0.700 |ddv_scf|^2 =  1.628E-18

      iter #  21 total cpu time :  5916.0 secs   av.it.:  16.2
      thresh= 1.276E-10 alpha_mix =  0.700 |ddv_scf|^2 =  1.790E-18

      iter #  22 total cpu time :  5950.1 secs   av.it.:  15.3
      thresh= 1.338E-10 alpha_mix =  0.700 |ddv_scf|^2 =  2.959E-19

      iter #  23 total cpu time :  5985.1 secs   av.it.:  16.2
      thresh= 5.440E-11 alpha_mix =  0.700 |ddv_scf|^2 =  3.913E-19

      iter #  24 total cpu time :  6020.2 secs   av.it.:  15.2
      thresh= 6.256E-11 alpha_mix =  0.700 |ddv_scf|^2 =  4.921E-20

      iter #  25 total cpu time :  6053.6 secs   av.it.:  16.5
      thresh= 2.218E-11 alpha_mix =  0.700 |ddv_scf|^2 =  2.283E-20

      iter #  26 total cpu time :  6086.3 secs   av.it.:  16.4
      thresh= 1.511E-11 alpha_mix =  0.700 |ddv_scf|^2 =  1.563E-20

      iter #  27 total cpu time :  6118.1 secs   av.it.:  15.8
      thresh= 1.250E-11 alpha_mix =  0.700 |ddv_scf|^2 =  5.398E-21

      iter #  28 total cpu time :  6153.4 secs   av.it.:  15.7
      thresh= 7.347E-12 alpha_mix =  0.700 |ddv_scf|^2 =  2.219E-21

      iter #  29 total cpu time :  6203.8 secs   av.it.:  15.7
      thresh= 4.711E-12 alpha_mix =  0.700 |ddv_scf|^2 =  6.402E-22

     End of self-consistent calculation

     Convergence has been achieved 


     Representation #   6 mode #   6

     Self-consistent Calculation

      iter #   1 total cpu time :  6232.1 secs   av.it.:   8.3
      thresh= 1.000E-02 alpha_mix =  0.700 |ddv_scf|^2 =  6.480E-07

      iter #   2 total cpu time :  6274.2 secs   av.it.:  16.2
      thresh= 8.050E-05 alpha_mix =  0.700 |ddv_scf|^2 =  5.168E-07

      iter #   3 total cpu time :  6308.5 secs   av.it.:  15.4
      thresh= 7.189E-05 alpha_mix =  0.700 |ddv_scf|^2 =  7.274E-09

      iter #   4 total cpu time :  6365.0 secs   av.it.:  15.7
      thresh= 8.529E-06 alpha_mix =  0.700 |ddv_scf|^2 =  5.931E-10

      iter #   5 total cpu time :  6403.5 secs   av.it.:  15.6
      thresh= 2.435E-06 alpha_mix =  0.700 |ddv_scf|^2 =  1.704E-11

      iter #   6 total cpu time :  6437.8 secs   av.it.:  16.1
      thresh= 4.128E-07 alpha_mix =  0.700 |ddv_scf|^2 =  5.229E-14

      iter #   7 total cpu time :  6472.3 secs   av.it.:  15.8
      thresh= 2.287E-08 alpha_mix =  0.700 |ddv_scf|^2 =  3.389E-15

      iter #   8 total cpu time :  6507.4 secs   av.it.:  15.8
      thresh= 5.821E-09 alpha_mix =  0.700 |ddv_scf|^2 =  2.840E-16

      iter #   9 total cpu time :  6546.0 secs   av.it.:  16.1
      thresh= 1.685E-09 alpha_mix =  0.700 |ddv_scf|^2 =  1.407E-17

      iter #  10 total cpu time :  6579.4 secs   av.it.:  16.6
      thresh= 3.751E-10 alpha_mix =  0.700 |ddv_scf|^2 =  7.998E-18

      iter #  11 total cpu time :  6615.1 secs   av.it.:  15.8
      thresh= 2.828E-10 alpha_mix =  0.700 |ddv_scf|^2 =  6.265E-19

      iter #  12 total cpu time :  6649.0 secs   av.it.:  16.3
      thresh= 7.915E-11 alpha_mix =  0.700 |ddv_scf|^2 =  1.963E-19

      iter #  13 total cpu time :  6686.6 secs   av.it.:  15.8
      thresh= 4.430E-11 alpha_mix =  0.700 |ddv_scf|^2 =  1.473E-20

      iter #  14 total cpu time :  6744.2 secs   av.it.:  16.2
      thresh= 1.214E-11 alpha_mix =  0.700 |ddv_scf|^2 =  3.621E-21

      iter #  15 total cpu time :  6778.7 secs   av.it.:  15.9
      thresh= 6.017E-12 alpha_mix =  0.700 |ddv_scf|^2 =  2.132E-22

     End of self-consistent calculation

     Convergence has been achieved 


     Representation #   7 mode #   7

     Self-consistent Calculation

      iter #   1 total cpu time :  6803.5 secs   av.it.:   7.5
      thresh= 1.000E-02 alpha_mix =  0.700 |ddv_scf|^2 =  1.063E-07

      iter #   2 total cpu time :  6841.5 secs   av.it.:  16.5
      thresh= 3.261E-05 alpha_mix =  0.700 |ddv_scf|^2 =  1.096E-07

      iter #   3 total cpu time :  6878.4 secs   av.it.:  15.5
      thresh= 3.311E-05 alpha_mix =  0.700 |ddv_scf|^2 =  2.223E-09

      iter #   4 total cpu time :  6910.6 secs   av.it.:  15.8
      thresh= 4.715E-06 alpha_mix =  0.700 |ddv_scf|^2 =  1.894E-10

      iter #   5 total cpu time :  6946.2 secs   av.it.:  15.5
      thresh= 1.376E-06 alpha_mix =  0.700 |ddv_scf|^2 =  3.674E-12

      iter #   6 total cpu time :  6978.9 secs   av.it.:  16.0
      thresh= 1.917E-07 alpha_mix =  0.700 |ddv_scf|^2 =  1.101E-13

      iter #   7 total cpu time :  7010.9 secs   av.it.:  16.2
      thresh= 3.319E-08 alpha_mix =  0.700 |ddv_scf|^2 =  2.010E-15

      iter #   8 total cpu time :  7045.2 secs   av.it.:  16.2
      thresh= 4.484E-09 alpha_mix =  0.700 |ddv_scf|^2 =  3.360E-16

      iter #   9 total cpu time :  7078.5 secs   av.it.:  16.4
      thresh= 1.833E-09 alpha_mix =  0.700 |ddv_scf|^2 =  7.100E-17

      iter #  10 total cpu time :  7111.1 secs   av.it.:  16.3
      thresh= 8.426E-10 alpha_mix =  0.700 |ddv_scf|^2 =  1.713E-17

      iter #  11 total cpu time :  7143.6 secs   av.it.:  16.1
      thresh= 4.139E-10 alpha_mix =  0.700 |ddv_scf|^2 =  2.233E-18

      iter #  12 total cpu time :  7182.4 secs   av.it.:  16.0
      thresh= 1.494E-10 alpha_mix =  0.700 |ddv_scf|^2 =  2.522E-19

      iter #  13 total cpu time :  7212.7 secs   av.it.:  16.0
      thresh= 5.021E-11 alpha_mix =  0.700 |ddv_scf|^2 =  1.967E-20

      iter #  14 total cpu time :  7244.5 secs   av.it.:  16.0
      thresh= 1.403E-11 alpha_mix =  0.700 |ddv_scf|^2 =  2.541E-21

      iter #  15 total cpu time :  7276.8 secs   av.it.:  15.9
      thresh= 5.041E-12 alpha_mix =  0.700 |ddv_scf|^2 =  1.381E-22

     End of self-consistent calculation

     Convergence has been achieved 


     Representation #   8 mode #   8

     Self-consistent Calculation

      iter #   1 total cpu time :  7305.4 secs   av.it.:   8.0
      thresh= 1.000E-02 alpha_mix =  0.700 |ddv_scf|^2 =  1.681E-07

      iter #   2 total cpu time :  7344.0 secs   av.it.:  16.3
      thresh= 4.099E-05 alpha_mix =  0.700 |ddv_scf|^2 =  1.107E-07

      iter #   3 total cpu time :  7396.7 secs   av.it.:  15.8
      thresh= 3.327E-05 alpha_mix =  0.700 |ddv_scf|^2 =  1.201E-08

      iter #   4 total cpu time :  7437.1 secs   av.it.:  15.6
      thresh= 1.096E-05 alpha_mix =  0.700 |ddv_scf|^2 =  3.589E-10

      iter #   5 total cpu time :  7472.2 secs   av.it.:  15.7
      thresh= 1.894E-06 alpha_mix =  0.700 |ddv_scf|^2 =  3.867E-11

      iter #   6 total cpu time :  7505.0 secs   av.it.:  15.4
      thresh= 6.218E-07 alpha_mix =  0.700 |ddv_scf|^2 =  7.329E-14

      iter #   7 total cpu time :  7537.7 secs   av.it.:  15.5
      thresh= 2.707E-08 alpha_mix =  0.700 |ddv_scf|^2 =  7.719E-15

      iter #   8 total cpu time :  7572.4 secs   av.it.:  16.0
      thresh= 8.786E-09 alpha_mix =  0.700 |ddv_scf|^2 =  8.414E-16

      iter #   9 total cpu time :  7610.8 secs   av.it.:  16.1
      thresh= 2.901E-09 alpha_mix =  0.700 |ddv_scf|^2 =  2.513E-18

      iter #  10 total cpu time :  7643.4 secs   av.it.:  16.3
      thresh= 1.585E-10 alpha_mix =  0.700 |ddv_scf|^2 =  5.088E-19

      iter #  11 total cpu time :  7678.8 secs   av.it.:  16.2
      thresh= 7.133E-11 alpha_mix =  0.700 |ddv_scf|^2 =  2.251E-19

      iter #  12 total cpu time :  7718.0 secs   av.it.:  16.3
      thresh= 4.745E-11 alpha_mix =  0.700 |ddv_scf|^2 =  3.307E-20

      iter #  13 total cpu time :  7751.3 secs   av.it.:  16.1
      thresh= 1.819E-11 alpha_mix =  0.700 |ddv_scf|^2 =  4.708E-22

     End of self-consistent calculation

     Convergence has been achieved 


     Representation #   9 mode #   9

     Self-consistent Calculation

      iter #   1 total cpu time :  7771.9 secs   av.it.:   8.1
      thresh= 1.000E-02 alpha_mix =  0.700 |ddv_scf|^2 =  1.968E-07

      iter #   2 total cpu time :  7830.5 secs   av.it.:  16.4
      thresh= 4.436E-05 alpha_mix =  0.700 |ddv_scf|^2 =  1.209E-07

      iter #   3 total cpu time :  7865.7 secs   av.it.:  15.6
      thresh= 3.477E-05 alpha_mix =  0.700 |ddv_scf|^2 =  5.646E-09

      iter #   4 total cpu time :  7904.0 secs   av.it.:  15.9
      thresh= 7.514E-06 alpha_mix =  0.700 |ddv_scf|^2 =  6.028E-10

      iter #   5 total cpu time :  7955.3 secs   av.it.:  15.9
      thresh= 2.455E-06 alpha_mix =  0.700 |ddv_scf|^2 =  7.655E-11

      iter #   6 total cpu time :  7993.1 secs   av.it.:  15.7
      thresh= 8.749E-07 alpha_mix =  0.700 |ddv_scf|^2 =  4.259E-14

      iter #   7 total cpu time :  8025.2 secs   av.it.:  16.1
      thresh= 2.064E-08 alpha_mix =  0.700 |ddv_scf|^2 =  3.035E-15

      iter #   8 total cpu time :  8061.4 secs   av.it.:  16.0
      thresh= 5.509E-09 alpha_mix =  0.700 |ddv_scf|^2 =  2.797E-16

      iter #   9 total cpu time :  8096.0 secs   av.it.:  16.1
      thresh= 1.673E-09 alpha_mix =  0.700 |ddv_scf|^2 =  1.756E-17

      iter #  10 total cpu time :  8128.6 secs   av.it.:  16.2
      thresh= 4.191E-10 alpha_mix =  0.700 |ddv_scf|^2 =  2.394E-18

      iter #  11 total cpu time :  8162.3 secs   av.it.:  16.0
      thresh= 1.547E-10 alpha_mix =  0.700 |ddv_scf|^2 =  3.131E-19

      iter #  12 total cpu time :  8197.5 secs   av.it.:  16.3
      thresh= 5.596E-11 alpha_mix =  0.700 |ddv_scf|^2 =  1.087E-19

      iter #  13 total cpu time :  8243.6 secs   av.it.:  15.9
      thresh= 3.297E-11 alpha_mix =  0.700 |ddv_scf|^2 =  1.118E-20

      iter #  14 total cpu time :  8293.9 secs   av.it.:  16.1
      thresh= 1.057E-11 alpha_mix =  0.700 |ddv_scf|^2 =  1.228E-21

      iter #  15 total cpu time :  8335.7 secs   av.it.:  16.3
      thresh= 3.505E-12 alpha_mix =  0.700 |ddv_scf|^2 =  1.932E-22

     End of self-consistent calculation

     Convergence has been achieved 
 
     Number of q in the star =    6
     List of q in the star:
          1   0.083333333   0.529237747   0.000000000
          2  -0.500000000  -0.192450090   0.000000000
          3   0.416666667  -0.336787657   0.000000000
          4  -0.083333333   0.529237747   0.000000000
          5  -0.416666667  -0.336787657   0.000000000
          6   0.500000000  -0.192450090   0.000000000
     In addition there is the -q list: 
          1  -0.083333333  -0.529237747   0.000000000
          2   0.500000000   0.192450090   0.000000000
          3  -0.416666667   0.336787657   0.000000000
          4   0.083333333  -0.529237747   0.000000000
          5   0.416666667   0.336787657   0.000000000
          6  -0.500000000   0.192450090   0.000000000

     Diagonalizing the dynamical matrix

     q = (    0.083333333   0.529237747   0.000000000 ) 

 **************************************************************************
     freq (    1) =      -2.884387 [THz] =     -96.212800 [cm-1]
     freq (    2) =       2.441929 [THz] =      81.453992 [cm-1]
     freq (    3) =       3.334654 [THz] =     111.232088 [cm-1]
     freq (    4) =       6.995804 [THz] =     233.354917 [cm-1]
     freq (    5) =       8.364207 [THz] =     278.999898 [cm-1]
     freq (    6) =       9.253492 [THz] =     308.663276 [cm-1]
     freq (    7) =       9.519327 [THz] =     317.530566 [cm-1]
     freq (    8) =       9.792708 [THz] =     326.649566 [cm-1]
     freq (    9) =      11.428122 [THz] =     381.201132 [cm-1]
 **************************************************************************

     Mode symmetry, C_s (m)     point group:

     freq (   1-   1) =        -96.2  [cm-1]   --> A'                 
     freq (   2-   2) =         81.5  [cm-1]   --> A''                
     freq (   3-   3) =        111.2  [cm-1]   --> A'                 
     freq (   4-   4) =        233.4  [cm-1]   --> A'                 
     freq (   5-   5) =        279.0  [cm-1]   --> A''                
     freq (   6-   6) =        308.7  [cm-1]   --> A''                
     freq (   7-   7) =        317.5  [cm-1]   --> A'                 
     freq (   8-   8) =        326.6  [cm-1]   --> A''                
     freq (   9-   9) =        381.2  [cm-1]   --> A'                 

     Calculation of q =    0.1666667   0.2886751   0.0000000
 
     Parallelization info
     --------------------
     sticks:   dense  smooth     PW     G-vecs:    dense   smooth      PW
     Min          60      31     10                 7329     2593     474
     Max          62      32     11                 7342     2605     490
     Sum        1099     559    187               132031    46753    8599
 
     Using Slab Decomposition
 

     Title: 
     TaS2                                                                       


     bravais-lattice index     =            4
     lattice parameter (alat)  =       6.3117  a.u.
     unit-cell volume          =     977.9382 (a.u.)^3
     number of atoms/cell      =            3
     number of atomic types    =            2
     number of electrons       =        17.00
     number of Kohn-Sham states=           13
     kinetic-energy cutoff     =      50.0000  Ry
     charge density cutoff     =     400.0000  Ry
     Exchange-correlation= PBE
                           (   1   4   3   4   0   0   0)

     celldm(1)=   6.311685  celldm(2)=   0.000000  celldm(3)=   4.491018
     celldm(4)=   0.000000  celldm(5)=   0.000000  celldm(6)=   0.000000

     crystal axes: (cart. coord. in units of alat)
               a(1) = (   1.000000   0.000000   0.000000 )  
               a(2) = (  -0.500000   0.866025   0.000000 )  
               a(3) = (   0.000000   0.000000   4.491018 )  

     reciprocal axes: (cart. coord. in units 2 pi/alat)
               b(1) = (  1.000000  0.577350  0.000000 )  
               b(2) = (  0.000000  1.154701  0.000000 )  
               b(3) = (  0.000000  0.000000  0.222667 )  


     PseudoPot. # 1 for Ta read from file:
     /fastscratch/tsievers/TaS2_24_ph_benchmark_images//pseudos/Ta.pbe-hgh.UPF
     MD5 check sum: 129c51a9a4223465c43ca8d238d17e53
     Pseudo is Norm-conserving, Zval =  5.0
     Generated in analytical, separable form
     Using radial grid of 1273 points,  6 beta functions with: 
                l(1) =   0
                l(2) =   0
                l(3) =   1
                l(4) =   1
                l(5) =   2
                l(6) =   2

     PseudoPot. # 2 for S  read from file:
     /fastscratch/tsievers/TaS2_24_ph_benchmark_images//pseudos/S.pbe-hgh.UPF
     MD5 check sum: 3a21e384b95a7cc84d045d3bcc0c4ba8
     Pseudo is Norm-conserving, Zval =  6.0
     Generated in analytical, separable form
     Using radial grid of 1151 points,  3 beta functions with: 
                l(1) =   0
                l(2) =   0
                l(3) =   1

     atomic species   valence    mass     pseudopotential
        Ta             5.00   180.95000     Ta( 1.00)
        S              6.00    32.06000     S ( 1.00)

     12 Sym. Ops. (no inversion) found



   Cartesian axes

     site n.     atom                  positions (alat units)
         1           S   tau(   1) = (  -0.0000000   0.5773503   0.4679048  )
         2           Ta  tau(   2) = (   0.0000000   0.0000000   0.0000000  )
         3           S   tau(   3) = (  -0.0000000   0.5773503  -0.4679048  )

     number of k points=  1152  Marzari-Vanderbilt smearing, width (Ry)=  0.0060

     Number of k-points >= 100: set verbosity='high' to print them.

     Dense  grid:   132031 G-vectors     FFT dimensions: (  45,  45, 192)

     Smooth grid:    46753 G-vectors     FFT dimensions: (  30,  30, 128)

     Estimated max dynamical RAM per process >       6.85 MB

     Estimated total dynamical RAM >     123.32 MB
 ----2D----2D----2D----2D----2D----2D----2D----2D----2D----2D----2D----2D
  The code is running with the 2D cutoff
  Please refer to:
  Sohier, T., Calandra, M., & Mauri, F. (2017), 
  Density functional perturbation theory for gated two-dimensional heterostructu
 res:
  Theoretical developments and application to flexural phonons in graphene.
  Physical Review B, 96(7), 75448. https://doi.org/10.1103/PhysRevB.96.075448
 ----2D----2D----2D----2D----2D----2D----2D----2D----2D----2D----2D----2D

     The potential is recalculated from file :
     /fastscratch/tsievers/QE_TMP_DIR/_ph1/TaS2_24_ph_bench_nimages_2_n_procs_36_0.q_13/TaS2_24_ph_bench_nimages_2_n_procs_36_0.save/charge-density

     Starting wfcs are   27 atomic wfcs

     Band Structure Calculation
     Davidson diagonalization with overlap

     ethr =  5.88E-11,  avg # of iterations = 20.5

     total cpu time spent up to now is      266.5 secs

     End of band structure calculation

     Number of k-points >= 100: set verbosity='high' to print the bands.

     the Fermi energy is    -5.8804 ev

     Writing config to output data dir /fastscratch/tsievers/QE_TMP_DIR/_ph1/TaS2_24_ph_bench_nimages_2_n_procs_36_0.q_13/TaS2_24_ph_bench_nimages_2_n_procs_36_0.save/

     TaS2                                                                       

     bravais-lattice index     =            4
     lattice parameter (alat)  =       6.3117  a.u.
     unit-cell volume          =     977.9382 (a.u.)^3
     number of atoms/cell      =            3
     number of atomic types    =            2
     kinetic-energy cut-off    =      50.0000  Ry
     charge density cut-off    =     400.0000  Ry
     convergence threshold     =      1.0E-21
     beta                      =       0.7000
     number of iterations used =            4
     Exchange-correlation= PBE
                           (   1   4   3   4   0   0   0)


     celldm(1)=    6.31169  celldm(2)=    0.00000  celldm(3)=    4.49102
     celldm(4)=    0.00000  celldm(5)=    0.00000  celldm(6)=    0.00000

     crystal axes: (cart. coord. in units of alat)
               a(1) = (  1.0000  0.0000  0.0000 )  
               a(2) = ( -0.5000  0.8660  0.0000 )  
               a(3) = (  0.0000  0.0000  4.4910 )  

     reciprocal axes: (cart. coord. in units 2 pi/alat)
               b(1) = (  1.0000  0.5774  0.0000 )  
               b(2) = (  0.0000  1.1547  0.0000 )  
               b(3) = (  0.0000  0.0000  0.2227 )  


     Atoms inside the unit cell: 

     Cartesian axes

     site n.  atom      mass           positions (alat units)
        1     S   32.0600   tau(    1) = (   -0.00000    0.57735    0.46790  )
        2     Ta 180.9500   tau(    2) = (    0.00000    0.00000    0.00000  )
        3     S   32.0600   tau(    3) = (   -0.00000    0.57735   -0.46790  )

     Computing dynamical matrix for 
                    q = (   0.1666667   0.2886751   0.0000000 )
 
      2 Sym.Ops. (no q -> -q+G )


     G cutoff =  403.6370  (   7330 G-vectors)     FFT grid: ( 45, 45,192)
     G cutoff =  201.8185  (   2599 G-vectors)  smooth grid: ( 30, 30,128)

     number of k points=  1152  Marzari-Vanderbilt smearing, width (Ry)=  0.0060

     PseudoPot. # 1 for Ta read from file:
     /fastscratch/tsievers/TaS2_24_ph_benchmark_images//pseudos/Ta.pbe-hgh.UPF
     MD5 check sum: 129c51a9a4223465c43ca8d238d17e53
     Pseudo is Norm-conserving, Zval =  5.0
     Generated in analytical, separable form
     Using radial grid of 1273 points,  6 beta functions with: 
                l(1) =   0
                l(2) =   0
                l(3) =   1
                l(4) =   1
                l(5) =   2
                l(6) =   2

     PseudoPot. # 2 for S  read from file:
     /fastscratch/tsievers/TaS2_24_ph_benchmark_images//pseudos/S.pbe-hgh.UPF
     MD5 check sum: 3a21e384b95a7cc84d045d3bcc0c4ba8
     Pseudo is Norm-conserving, Zval =  6.0
     Generated in analytical, separable form
     Using radial grid of 1151 points,  3 beta functions with: 
                l(1) =   0
                l(2) =   0
                l(3) =   1

     Mode symmetry, C_s (m)     point group:


     Atomic displacements:
     There are    9 irreducible representations

     Representation     1      1 modes -  To be done

     Representation     2      1 modes -  To be done

     Representation     3      1 modes -  To be done

     Representation     4      1 modes -  To be done

     Representation     5      1 modes -  To be done

     Representation     6      1 modes -  To be done

     Representation     7      1 modes -  To be done

     Representation     8      1 modes -  To be done

     Representation     9      1 modes -  To be done



     Alpha used in Ewald sum =   2.8000
     PHONON       :      2h 6m CPU      2h21m WALL



     Representation #   1 mode #   1

     Self-consistent Calculation

      iter #   1 total cpu time :  8512.3 secs   av.it.:   8.9
      thresh= 1.000E-02 alpha_mix =  0.700 |ddv_scf|^2 =  3.237E-05

      iter #   2 total cpu time :  8576.8 secs   av.it.:  16.4
      thresh= 5.689E-04 alpha_mix =  0.700 |ddv_scf|^2 =  2.815E-03

      iter #   3 total cpu time :  8634.5 secs   av.it.:  12.7
      thresh= 5.306E-03 alpha_mix =  0.700 |ddv_scf|^2 =  8.730E-07

      iter #   4 total cpu time :  8690.2 secs   av.it.:  15.4
      thresh= 9.344E-05 alpha_mix =  0.700 |ddv_scf|^2 =  2.960E-07

      iter #   5 total cpu time :  8742.4 secs   av.it.:  14.7
      thresh= 5.441E-05 alpha_mix =  0.700 |ddv_scf|^2 =  1.636E-09

      iter #   6 total cpu time :  8775.4 secs   av.it.:  16.3
      thresh= 4.045E-06 alpha_mix =  0.700 |ddv_scf|^2 =  9.625E-11

      iter #   7 total cpu time :  8831.0 secs   av.it.:  16.3
      thresh= 9.811E-07 alpha_mix =  0.700 |ddv_scf|^2 =  2.197E-09

      iter #   8 total cpu time :  8868.1 secs   av.it.:  13.4
      thresh= 4.687E-06 alpha_mix =  0.700 |ddv_scf|^2 =  1.104E-10

      iter #   9 total cpu time :  8919.9 secs   av.it.:  14.4
      thresh= 1.051E-06 alpha_mix =  0.700 |ddv_scf|^2 =  1.978E-11

      iter #  10 total cpu time :  8974.6 secs   av.it.:  14.4
      thresh= 4.448E-07 alpha_mix =  0.700 |ddv_scf|^2 =  4.055E-13

      iter #  11 total cpu time :  9023.4 secs   av.it.:  16.0
      thresh= 6.368E-08 alpha_mix =  0.700 |ddv_scf|^2 =  3.088E-13

      iter #  12 total cpu time :  9056.1 secs   av.it.:  15.7
      thresh= 5.557E-08 alpha_mix =  0.700 |ddv_scf|^2 =  8.026E-13

      iter #  13 total cpu time :  9105.7 secs   av.it.:  14.2
      thresh= 8.959E-08 alpha_mix =  0.700 |ddv_scf|^2 =  1.172E-14

      iter #  14 total cpu time :  9141.9 secs   av.it.:  15.0
      thresh= 1.082E-08 alpha_mix =  0.700 |ddv_scf|^2 =  9.367E-15

      iter #  15 total cpu time :  9180.4 secs   av.it.:  14.7
      thresh= 9.678E-09 alpha_mix =  0.700 |ddv_scf|^2 =  5.624E-14

      iter #  16 total cpu time :  9211.0 secs   av.it.:  13.3
      thresh= 2.372E-08 alpha_mix =  0.700 |ddv_scf|^2 =  4.125E-16

      iter #  17 total cpu time :  9244.9 secs   av.it.:  15.3
      thresh= 2.031E-09 alpha_mix =  0.700 |ddv_scf|^2 =  2.131E-16

      iter #  18 total cpu time :  9276.9 secs   av.it.:  14.7
      thresh= 1.460E-09 alpha_mix =  0.700 |ddv_scf|^2 =  4.849E-18

      iter #  19 total cpu time :  9313.0 secs   av.it.:  15.5
      thresh= 2.202E-10 alpha_mix =  0.700 |ddv_scf|^2 =  6.118E-19

      iter #  20 total cpu time :  9359.6 secs   av.it.:  15.0
      thresh= 7.822E-11 alpha_mix =  0.700 |ddv_scf|^2 =  1.654E-20

      iter #  21 total cpu time :  9392.8 secs   av.it.:  16.3
      thresh= 1.286E-11 alpha_mix =  0.700 |ddv_scf|^2 =  1.688E-19

      iter #  22 total cpu time :  9421.9 secs   av.it.:  13.8
      thresh= 4.109E-11 alpha_mix =  0.700 |ddv_scf|^2 =  2.190E-21

      iter #  23 total cpu time :  9456.9 secs   av.it.:  16.0
      thresh= 4.680E-12 alpha_mix =  0.700 |ddv_scf|^2 =  1.581E-20

      iter #  24 total cpu time :  9485.7 secs   av.it.:  13.7
      thresh= 1.257E-11 alpha_mix =  0.700 |ddv_scf|^2 =  3.750E-22

     End of self-consistent calculation

     Convergence has been achieved 


     Representation #   2 mode #   2

     Self-consistent Calculation

      iter #   1 total cpu time :  9506.3 secs   av.it.:   8.0
      thresh= 1.000E-02 alpha_mix =  0.700 |ddv_scf|^2 =  9.679E-06

      iter #   2 total cpu time :  9548.6 secs   av.it.:  16.4
      thresh= 3.111E-04 alpha_mix =  0.700 |ddv_scf|^2 =  8.515E-04

      iter #   3 total cpu time :  9595.4 secs   av.it.:  12.7
      thresh= 2.918E-03 alpha_mix =  0.700 |ddv_scf|^2 =  1.401E-07

      iter #   4 total cpu time :  9631.5 secs   av.it.:  15.6
      thresh= 3.743E-05 alpha_mix =  0.700 |ddv_scf|^2 =  8.443E-08

      iter #   5 total cpu time :  9662.7 secs   av.it.:  14.6
      thresh= 2.906E-05 alpha_mix =  0.700 |ddv_scf|^2 =  5.657E-09

      iter #   6 total cpu time :  9695.6 secs   av.it.:  14.5
      thresh= 7.521E-06 alpha_mix =  0.700 |ddv_scf|^2 =  7.860E-12

      iter #   7 total cpu time :  9728.8 secs   av.it.:  16.3
      thresh= 2.803E-07 alpha_mix =  0.700 |ddv_scf|^2 =  1.651E-11

      iter #   8 total cpu time :  9760.7 secs   av.it.:  15.2
      thresh= 4.063E-07 alpha_mix =  0.700 |ddv_scf|^2 =  8.592E-11

      iter #   9 total cpu time :  9790.3 secs   av.it.:  14.0
      thresh= 9.269E-07 alpha_mix =  0.700 |ddv_scf|^2 =  2.829E-12

      iter #  10 total cpu time :  9823.7 secs   av.it.:  15.2
      thresh= 1.682E-07 alpha_mix =  0.700 |ddv_scf|^2 =  2.079E-14

      iter #  11 total cpu time :  9855.3 secs   av.it.:  16.0
      thresh= 1.442E-08 alpha_mix =  0.700 |ddv_scf|^2 =  2.146E-14

      iter #  12 total cpu time :  9887.2 secs   av.it.:  15.1
      thresh= 1.465E-08 alpha_mix =  0.700 |ddv_scf|^2 =  5.041E-15

      iter #  13 total cpu time :  9916.9 secs   av.it.:  14.0
      thresh= 7.100E-09 alpha_mix =  0.700 |ddv_scf|^2 =  1.725E-15

      iter #  14 total cpu time :  9949.3 secs   av.it.:  15.5
      thresh= 4.153E-09 alpha_mix =  0.700 |ddv_scf|^2 =  7.875E-16

      iter #  15 total cpu time :  9978.9 secs   av.it.:  14.3
      thresh= 2.806E-09 alpha_mix =  0.700 |ddv_scf|^2 =  3.306E-17

      iter #  16 total cpu time : 10015.5 secs   av.it.:  15.1
      thresh= 5.750E-10 alpha_mix =  0.700 |ddv_scf|^2 =  8.811E-18

      iter #  17 total cpu time : 10047.0 secs   av.it.:  14.8
      thresh= 2.968E-10 alpha_mix =  0.700 |ddv_scf|^2 =  2.282E-18

      iter #  18 total cpu time : 10080.0 secs   av.it.:  14.6
      thresh= 1.511E-10 alpha_mix =  0.700 |ddv_scf|^2 =  2.562E-19

      iter #  19 total cpu time : 10111.1 secs   av.it.:  15.4
      thresh= 5.062E-11 alpha_mix =  0.700 |ddv_scf|^2 =  3.940E-20

      iter #  20 total cpu time : 10171.2 secs   av.it.:  16.0
      thresh= 1.985E-11 alpha_mix =  0.700 |ddv_scf|^2 =  1.105E-19

      iter #  21 total cpu time : 10214.8 secs   av.it.:  13.8
      thresh= 3.325E-11 alpha_mix =  0.700 |ddv_scf|^2 =  5.139E-21

      iter #  22 total cpu time : 10246.9 secs   av.it.:  15.1
      thresh= 7.168E-12 alpha_mix =  0.700 |ddv_scf|^2 =  8.057E-22

     End of self-consistent calculation

     Convergence has been achieved 


     Representation #   3 mode #   3

     Self-consistent Calculation

      iter #   1 total cpu time : 10265.9 secs   av.it.:   8.8
      thresh= 1.000E-02 alpha_mix =  0.700 |ddv_scf|^2 =  1.110E-05

      iter #   2 total cpu time : 10307.0 secs   av.it.:  16.7
      thresh= 3.331E-04 alpha_mix =  0.700 |ddv_scf|^2 =  1.086E-03

      iter #   3 total cpu time : 10335.9 secs   av.it.:  12.7
      thresh= 3.295E-03 alpha_mix =  0.700 |ddv_scf|^2 =  2.470E-06

      iter #   4 total cpu time : 10367.2 secs   av.it.:  15.1
      thresh= 1.572E-04 alpha_mix =  0.700 |ddv_scf|^2 =  3.566E-07

      iter #   5 total cpu time : 10399.5 secs   av.it.:  14.7
      thresh= 5.971E-05 alpha_mix =  0.700 |ddv_scf|^2 =  3.241E-08

      iter #   6 total cpu time : 10433.0 secs   av.it.:  14.7
      thresh= 1.800E-05 alpha_mix =  0.700 |ddv_scf|^2 =  4.829E-11

      iter #   7 total cpu time : 10465.4 secs   av.it.:  16.3
      thresh= 6.949E-07 alpha_mix =  0.700 |ddv_scf|^2 =  1.274E-09

      iter #   8 total cpu time : 10495.0 secs   av.it.:  13.2
      thresh= 3.569E-06 alpha_mix =  0.700 |ddv_scf|^2 =  2.080E-11

      iter #   9 total cpu time : 10529.3 secs   av.it.:  16.1
      thresh= 4.561E-07 alpha_mix =  0.700 |ddv_scf|^2 =  9.662E-12

      iter #  10 total cpu time : 10560.5 secs   av.it.:  15.2
      thresh= 3.108E-07 alpha_mix =  0.700 |ddv_scf|^2 =  3.029E-12

      iter #  11 total cpu time : 10589.9 secs   av.it.:  14.1
      thresh= 1.741E-07 alpha_mix =  0.700 |ddv_scf|^2 =  9.520E-14

      iter #  12 total cpu time : 10624.0 secs   av.it.:  15.2
      thresh= 3.085E-08 alpha_mix =  0.700 |ddv_scf|^2 =  2.373E-14

      iter #  13 total cpu time : 10654.6 secs   av.it.:  14.5
      thresh= 1.540E-08 alpha_mix =  0.700 |ddv_scf|^2 =  1.184E-15

      iter #  14 total cpu time : 10686.4 secs   av.it.:  15.3
      thresh= 3.441E-09 alpha_mix =  0.700 |ddv_scf|^2 =  9.052E-16

      iter #  15 total cpu time : 10716.7 secs   av.it.:  14.5
      thresh= 3.009E-09 alpha_mix =  0.700 |ddv_scf|^2 =  1.194E-15

      iter #  16 total cpu time : 10749.2 secs   av.it.:  14.1
      thresh= 3.456E-09 alpha_mix =  0.700 |ddv_scf|^2 =  2.183E-16

      iter #  17 total cpu time : 10780.6 secs   av.it.:  15.0
      thresh= 1.478E-09 alpha_mix =  0.700 |ddv_scf|^2 =  6.364E-17

      iter #  18 total cpu time : 10811.6 secs   av.it.:  14.9
      thresh= 7.978E-10 alpha_mix =  0.700 |ddv_scf|^2 =  9.094E-18

      iter #  19 total cpu time : 10842.2 secs   av.it.:  14.8
      thresh= 3.016E-10 alpha_mix =  0.700 |ddv_scf|^2 =  2.146E-18

      iter #  20 total cpu time : 10873.8 secs   av.it.:  14.4
      thresh= 1.465E-10 alpha_mix =  0.700 |ddv_scf|^2 =  2.592E-19

      iter #  21 total cpu time : 10905.9 secs   av.it.:  15.1
      thresh= 5.091E-11 alpha_mix =  0.700 |ddv_scf|^2 =  8.266E-20

      iter #  22 total cpu time : 10936.3 secs   av.it.:  15.2
      thresh= 2.875E-11 alpha_mix =  0.700 |ddv_scf|^2 =  4.859E-21

      iter #  23 total cpu time : 10968.1 secs   av.it.:  15.9
      thresh= 6.970E-12 alpha_mix =  0.700 |ddv_scf|^2 =  1.316E-21

      iter #  24 total cpu time : 11001.1 secs   av.it.:  14.9
      thresh= 3.627E-12 alpha_mix =  0.700 |ddv_scf|^2 =  3.222E-23

     End of self-consistent calculation

     Convergence has been achieved 


     Representation #   4 mode #   4

     Self-consistent Calculation

      iter #   1 total cpu time : 11024.7 secs   av.it.:   8.3
      thresh= 1.000E-02 alpha_mix =  0.700 |ddv_scf|^2 =  1.748E-05

      iter #   2 total cpu time : 11073.0 secs   av.it.:  16.4
      thresh= 4.180E-04 alpha_mix =  0.700 |ddv_scf|^2 =  1.542E-03

      iter #   3 total cpu time : 11102.6 secs   av.it.:  12.8
      thresh= 3.927E-03 alpha_mix =  0.700 |ddv_scf|^2 =  2.173E-07

      iter #   4 total cpu time : 11136.1 secs   av.it.:  15.6
      thresh= 4.661E-05 alpha_mix =  0.700 |ddv_scf|^2 =  1.567E-07

      iter #   5 total cpu time : 11166.8 secs   av.it.:  14.5
      thresh= 3.958E-05 alpha_mix =  0.700 |ddv_scf|^2 =  6.748E-09

      iter #   6 total cpu time : 11200.7 secs   av.it.:  14.6
      thresh= 8.214E-06 alpha_mix =  0.700 |ddv_scf|^2 =  7.439E-12

      iter #   7 total cpu time : 11233.8 secs   av.it.:  16.3
      thresh= 2.727E-07 alpha_mix =  0.700 |ddv_scf|^2 =  2.418E-12

      iter #   8 total cpu time : 11269.1 secs   av.it.:  16.3
      thresh= 1.555E-07 alpha_mix =  0.700 |ddv_scf|^2 =  3.939E-11

      iter #   9 total cpu time : 11298.9 secs   av.it.:  13.7
      thresh= 6.276E-07 alpha_mix =  0.700 |ddv_scf|^2 =  3.615E-12

      iter #  10 total cpu time : 11330.3 secs   av.it.:  14.8
      thresh= 1.901E-07 alpha_mix =  0.700 |ddv_scf|^2 =  1.369E-14

      iter #  11 total cpu time : 11362.8 secs   av.it.:  15.7
      thresh= 1.170E-08 alpha_mix =  0.700 |ddv_scf|^2 =  2.849E-14

      iter #  12 total cpu time : 11392.8 secs   av.it.:  13.7
      thresh= 1.688E-08 alpha_mix =  0.700 |ddv_scf|^2 =  3.803E-15

      iter #  13 total cpu time : 11426.0 secs   av.it.:  15.7
      thresh= 6.167E-09 alpha_mix =  0.700 |ddv_scf|^2 =  2.686E-15

      iter #  14 total cpu time : 11457.2 secs   av.it.:  14.8
      thresh= 5.183E-09 alpha_mix =  0.700 |ddv_scf|^2 =  1.391E-16

      iter #  15 total cpu time : 11488.9 secs   av.it.:  15.5
      thresh= 1.179E-09 alpha_mix =  0.700 |ddv_scf|^2 =  3.297E-17

      iter #  16 total cpu time : 11522.9 secs   av.it.:  15.7
      thresh= 5.742E-10 alpha_mix =  0.700 |ddv_scf|^2 =  2.080E-17

      iter #  17 total cpu time : 11553.7 secs   av.it.:  14.9
      thresh= 4.561E-10 alpha_mix =  0.700 |ddv_scf|^2 =  1.010E-18

      iter #  18 total cpu time : 11585.8 secs   av.it.:  16.1
      thresh= 1.005E-10 alpha_mix =  0.700 |ddv_scf|^2 =  1.955E-18

      iter #  19 total cpu time : 11616.3 secs   av.it.:  14.5
      thresh= 1.398E-10 alpha_mix =  0.700 |ddv_scf|^2 =  6.099E-19

      iter #  20 total cpu time : 11648.1 secs   av.it.:  14.4
      thresh= 7.810E-11 alpha_mix =  0.700 |ddv_scf|^2 =  3.160E-20

      iter #  21 total cpu time : 11682.7 secs   av.it.:  16.1
      thresh= 1.778E-11 alpha_mix =  0.700 |ddv_scf|^2 =  2.825E-20

      iter #  22 total cpu time : 11714.7 secs   av.it.:  15.3
      thresh= 1.681E-11 alpha_mix =  0.700 |ddv_scf|^2 =  2.840E-20

      iter #  23 total cpu time : 11744.3 secs   av.it.:  13.4
      thresh= 1.685E-11 alpha_mix =  0.700 |ddv_scf|^2 =  2.598E-21

      iter #  24 total cpu time : 11776.4 secs   av.it.:  15.4
      thresh= 5.097E-12 alpha_mix =  0.700 |ddv_scf|^2 =  8.496E-21

      iter #  25 total cpu time : 11814.0 secs   av.it.:  13.6
      thresh= 9.218E-12 alpha_mix =  0.700 |ddv_scf|^2 =  1.800E-21

      iter #  26 total cpu time : 11846.0 secs   av.it.:  14.9
      thresh= 4.242E-12 alpha_mix =  0.700 |ddv_scf|^2 =  3.709E-23

     End of self-consistent calculation

     Convergence has been achieved 


     Representation #   5 mode #   5

     Self-consistent Calculation

      iter #   1 total cpu time : 11867.2 secs   av.it.:   8.9
      thresh= 1.000E-02 alpha_mix =  0.700 |ddv_scf|^2 =  3.155E-05

      iter #   2 total cpu time : 11909.9 secs   av.it.:  16.4
      thresh= 5.617E-04 alpha_mix =  0.700 |ddv_scf|^2 =  2.753E-03

      iter #   3 total cpu time : 11936.4 secs   av.it.:  12.7
      thresh= 5.247E-03 alpha_mix =  0.700 |ddv_scf|^2 =  7.188E-07

      iter #   4 total cpu time : 11971.1 secs   av.it.:  15.4
      thresh= 8.479E-05 alpha_mix =  0.700 |ddv_scf|^2 =  2.682E-07

      iter #   5 total cpu time : 12004.4 secs   av.it.:  14.7
      thresh= 5.179E-05 alpha_mix =  0.700 |ddv_scf|^2 =  3.196E-09

      iter #   6 total cpu time : 12042.9 secs   av.it.:  15.9
      thresh= 5.653E-06 alpha_mix =  0.700 |ddv_scf|^2 =  1.476E-10

      iter #   7 total cpu time : 12074.9 secs   av.it.:  15.9
      thresh= 1.215E-06 alpha_mix =  0.700 |ddv_scf|^2 =  1.546E-09

      iter #   8 total cpu time : 12105.5 secs   av.it.:  13.5
      thresh= 3.932E-06 alpha_mix =  0.700 |ddv_scf|^2 =  1.136E-10

      iter #   9 total cpu time : 12136.2 secs   av.it.:  14.4
      thresh= 1.066E-06 alpha_mix =  0.700 |ddv_scf|^2 =  1.250E-11

      iter #  10 total cpu time : 12168.6 secs   av.it.:  14.8
      thresh= 3.535E-07 alpha_mix =  0.700 |ddv_scf|^2 =  9.149E-13

      iter #  11 total cpu time : 12199.8 secs   av.it.:  15.3
      thresh= 9.565E-08 alpha_mix =  0.700 |ddv_scf|^2 =  1.862E-14

      iter #  12 total cpu time : 12245.9 secs   av.it.:  17.0
      thresh= 1.365E-08 alpha_mix =  0.700 |ddv_scf|^2 =  9.690E-14

      iter #  13 total cpu time : 12279.1 secs   av.it.:  14.5
      thresh= 3.113E-08 alpha_mix =  0.700 |ddv_scf|^2 =  1.137E-14

      iter #  14 total cpu time : 12312.8 secs   av.it.:  14.4
      thresh= 1.066E-08 alpha_mix =  0.700 |ddv_scf|^2 =  4.444E-15

      iter #  15 total cpu time : 12344.8 secs   av.it.:  14.3
      thresh= 6.666E-09 alpha_mix =  0.700 |ddv_scf|^2 =  4.579E-15

      iter #  16 total cpu time : 12371.4 secs   av.it.:  13.4
      thresh= 6.767E-09 alpha_mix =  0.700 |ddv_scf|^2 =  1.455E-16

      iter #  17 total cpu time : 12405.8 secs   av.it.:  15.4
      thresh= 1.206E-09 alpha_mix =  0.700 |ddv_scf|^2 =  1.072E-16

      iter #  18 total cpu time : 12437.1 secs   av.it.:  14.4
      thresh= 1.035E-09 alpha_mix =  0.700 |ddv_scf|^2 =  4.140E-17

      iter #  19 total cpu time : 12470.8 secs   av.it.:  14.9
      thresh= 6.434E-10 alpha_mix =  0.700 |ddv_scf|^2 =  3.406E-18

      iter #  20 total cpu time : 12502.3 secs   av.it.:  15.3
      thresh= 1.846E-10 alpha_mix =  0.700 |ddv_scf|^2 =  2.561E-19

      iter #  21 total cpu time : 12535.0 secs   av.it.:  16.2
      thresh= 5.060E-11 alpha_mix =  0.700 |ddv_scf|^2 =  1.684E-18

      iter #  22 total cpu time : 12563.5 secs   av.it.:  13.5
      thresh= 1.298E-10 alpha_mix =  0.700 |ddv_scf|^2 =  4.095E-20

      iter #  23 total cpu time : 12594.1 secs   av.it.:  14.0
      thresh= 2.024E-11 alpha_mix =  0.700 |ddv_scf|^2 =  1.383E-20

      iter #  24 total cpu time : 12625.9 secs   av.it.:  14.7
      thresh= 1.176E-11 alpha_mix =  0.700 |ddv_scf|^2 =  1.273E-21

      iter #  25 total cpu time : 12656.7 secs   av.it.:  15.0
      thresh= 3.568E-12 alpha_mix =  0.700 |ddv_scf|^2 =  1.443E-22

     End of self-consistent calculation

     Convergence has been achieved 


     Representation #   6 mode #   6

     Self-consistent Calculation

      iter #   1 total cpu time : 12677.2 secs   av.it.:   8.3
      thresh= 1.000E-02 alpha_mix =  0.700 |ddv_scf|^2 =  8.418E-07

      iter #   2 total cpu time : 12717.8 secs   av.it.:  16.2
      thresh= 9.175E-05 alpha_mix =  0.700 |ddv_scf|^2 =  2.652E-06

      iter #   3 total cpu time : 12750.0 secs   av.it.:  14.7
      thresh= 1.628E-04 alpha_mix =  0.700 |ddv_scf|^2 =  1.953E-08

      iter #   4 total cpu time : 12783.4 secs   av.it.:  15.8
      thresh= 1.397E-05 alpha_mix =  0.700 |ddv_scf|^2 =  3.537E-10

      iter #   5 total cpu time : 12816.6 secs   av.it.:  15.8
      thresh= 1.881E-06 alpha_mix =  0.700 |ddv_scf|^2 =  2.641E-11

      iter #   6 total cpu time : 12849.5 secs   av.it.:  16.0
      thresh= 5.139E-07 alpha_mix =  0.700 |ddv_scf|^2 =  9.697E-14

      iter #   7 total cpu time : 12880.4 secs   av.it.:  15.6
      thresh= 3.114E-08 alpha_mix =  0.700 |ddv_scf|^2 =  3.488E-15

      iter #   8 total cpu time : 12914.9 secs   av.it.:  16.0
      thresh= 5.906E-09 alpha_mix =  0.700 |ddv_scf|^2 =  2.693E-15

      iter #   9 total cpu time : 12947.0 secs   av.it.:  15.5
      thresh= 5.189E-09 alpha_mix =  0.700 |ddv_scf|^2 =  1.285E-15

      iter #  10 total cpu time : 12975.7 secs   av.it.:  15.1
      thresh= 3.585E-09 alpha_mix =  0.700 |ddv_scf|^2 =  1.150E-17

      iter #  11 total cpu time : 13009.8 secs   av.it.:  16.1
      thresh= 3.391E-10 alpha_mix =  0.700 |ddv_scf|^2 =  2.534E-18

      iter #  12 total cpu time : 13042.2 secs   av.it.:  15.9
      thresh= 1.592E-10 alpha_mix =  0.700 |ddv_scf|^2 =  6.056E-19

      iter #  13 total cpu time : 13074.8 secs   av.it.:  15.6
      thresh= 7.782E-11 alpha_mix =  0.700 |ddv_scf|^2 =  6.281E-20

      iter #  14 total cpu time : 13105.8 secs   av.it.:  15.6
      thresh= 2.506E-11 alpha_mix =  0.700 |ddv_scf|^2 =  4.008E-21

      iter #  15 total cpu time : 13137.1 secs   av.it.:  15.9
      thresh= 6.331E-12 alpha_mix =  0.700 |ddv_scf|^2 =  1.194E-21

      iter #  16 total cpu time : 13167.5 secs   av.it.:  15.2
      thresh= 3.455E-12 alpha_mix =  0.700 |ddv_scf|^2 =  1.265E-22

     End of self-consistent calculation

     Convergence has been achieved 


     Representation #   7 mode #   7

     Self-consistent Calculation

      iter #   1 total cpu time : 13187.5 secs   av.it.:   7.9
      thresh= 1.000E-02 alpha_mix =  0.700 |ddv_scf|^2 =  6.713E-07

      iter #   2 total cpu time : 13227.7 secs   av.it.:  16.3
      thresh= 8.193E-05 alpha_mix =  0.700 |ddv_scf|^2 =  2.566E-06

      iter #   3 total cpu time : 13259.5 secs   av.it.:  14.6
      thresh= 1.602E-04 alpha_mix =  0.700 |ddv_scf|^2 =  2.551E-09

      iter #   4 total cpu time : 13293.2 secs   av.it.:  16.0
      thresh= 5.051E-06 alpha_mix =  0.700 |ddv_scf|^2 =  9.258E-11

      iter #   5 total cpu time : 13324.7 secs   av.it.:  16.0
      thresh= 9.622E-07 alpha_mix =  0.700 |ddv_scf|^2 =  4.068E-12

      iter #   6 total cpu time : 13358.3 secs   av.it.:  16.3
      thresh= 2.017E-07 alpha_mix =  0.700 |ddv_scf|^2 =  6.266E-13

      iter #   7 total cpu time : 13390.0 secs   av.it.:  15.4
      thresh= 7.916E-08 alpha_mix =  0.700 |ddv_scf|^2 =  1.437E-15

      iter #   8 total cpu time : 13421.0 secs   av.it.:  15.9
      thresh= 3.791E-09 alpha_mix =  0.700 |ddv_scf|^2 =  5.061E-16

      iter #   9 total cpu time : 13455.0 secs   av.it.:  15.9
      thresh= 2.250E-09 alpha_mix =  0.700 |ddv_scf|^2 =  2.429E-17

      iter #  10 total cpu time : 13488.5 secs   av.it.:  16.5
      thresh= 4.928E-10 alpha_mix =  0.700 |ddv_scf|^2 =  2.251E-17

      iter #  11 total cpu time : 13518.4 secs   av.it.:  15.2
      thresh= 4.745E-10 alpha_mix =  0.700 |ddv_scf|^2 =  1.661E-18

      iter #  12 total cpu time : 13568.3 secs   av.it.:  15.6
      thresh= 1.289E-10 alpha_mix =  0.700 |ddv_scf|^2 =  1.256E-19

      iter #  13 total cpu time : 13599.1 secs   av.it.:  16.3
      thresh= 3.544E-11 alpha_mix =  0.700 |ddv_scf|^2 =  3.211E-20

      iter #  14 total cpu time : 13633.0 secs   av.it.:  15.9
      thresh= 1.792E-11 alpha_mix =  0.700 |ddv_scf|^2 =  1.136E-20

      iter #  15 total cpu time : 13665.0 secs   av.it.:  15.0
      thresh= 1.066E-11 alpha_mix =  0.700 |ddv_scf|^2 =  3.354E-22

     End of self-consistent calculation

     Convergence has been achieved 


     Representation #   8 mode #   8

     Self-consistent Calculation

      iter #   1 total cpu time : 13687.3 secs   av.it.:   8.1
      thresh= 1.000E-02 alpha_mix =  0.700 |ddv_scf|^2 =  7.666E-07

      iter #   2 total cpu time : 13741.3 secs   av.it.:  16.1
      thresh= 8.755E-05 alpha_mix =  0.700 |ddv_scf|^2 =  2.096E-06

      iter #   3 total cpu time : 13773.2 secs   av.it.:  14.7
      thresh= 1.448E-04 alpha_mix =  0.700 |ddv_scf|^2 =  3.494E-08

      iter #   4 total cpu time : 13806.2 secs   av.it.:  15.2
      thresh= 1.869E-05 alpha_mix =  0.700 |ddv_scf|^2 =  3.914E-10

      iter #   5 total cpu time : 13840.2 secs   av.it.:  14.8
      thresh= 1.979E-06 alpha_mix =  0.700 |ddv_scf|^2 =  3.418E-12

      iter #   6 total cpu time : 13874.7 secs   av.it.:  15.9
      thresh= 1.849E-07 alpha_mix =  0.700 |ddv_scf|^2 =  1.501E-13

      iter #   7 total cpu time : 13908.9 secs   av.it.:  16.2
      thresh= 3.874E-08 alpha_mix =  0.700 |ddv_scf|^2 =  2.056E-14

      iter #   8 total cpu time : 13944.0 secs   av.it.:  15.4
      thresh= 1.434E-08 alpha_mix =  0.700 |ddv_scf|^2 =  3.810E-16

      iter #   9 total cpu time : 13980.8 secs   av.it.:  16.3
      thresh= 1.952E-09 alpha_mix =  0.700 |ddv_scf|^2 =  1.311E-16

      iter #  10 total cpu time : 14012.4 secs   av.it.:  15.6
      thresh= 1.145E-09 alpha_mix =  0.700 |ddv_scf|^2 =  5.709E-17

      iter #  11 total cpu time : 14051.0 secs   av.it.:  14.9
      thresh= 7.556E-10 alpha_mix =  0.700 |ddv_scf|^2 =  4.290E-18

      iter #  12 total cpu time : 14083.8 secs   av.it.:  15.1
      thresh= 2.071E-10 alpha_mix =  0.700 |ddv_scf|^2 =  3.363E-19

      iter #  13 total cpu time : 14116.0 secs   av.it.:  15.9
      thresh= 5.799E-11 alpha_mix =  0.700 |ddv_scf|^2 =  4.205E-20

      iter #  14 total cpu time : 14152.4 secs   av.it.:  16.1
      thresh= 2.050E-11 alpha_mix =  0.700 |ddv_scf|^2 =  7.424E-21

      iter #  15 total cpu time : 14187.4 secs   av.it.:  16.0
      thresh= 8.616E-12 alpha_mix =  0.700 |ddv_scf|^2 =  3.118E-22

     End of self-consistent calculation

     Convergence has been achieved 


     Representation #   9 mode #   9

     Self-consistent Calculation

      iter #   1 total cpu time : 14206.2 secs   av.it.:   8.3
      thresh= 1.000E-02 alpha_mix =  0.700 |ddv_scf|^2 =  9.174E-07

      iter #   2 total cpu time : 14257.6 secs   av.it.:  16.2
      thresh= 9.578E-05 alpha_mix =  0.700 |ddv_scf|^2 =  2.898E-06

      iter #   3 total cpu time : 14286.3 secs   av.it.:  14.7
      thresh= 1.702E-04 alpha_mix =  0.700 |ddv_scf|^2 =  2.108E-08

      iter #   4 total cpu time : 14320.7 secs   av.it.:  15.8
      thresh= 1.452E-05 alpha_mix =  0.700 |ddv_scf|^2 =  3.742E-10

      iter #   5 total cpu time : 14353.2 secs   av.it.:  15.8
      thresh= 1.935E-06 alpha_mix =  0.700 |ddv_scf|^2 =  2.441E-11

      iter #   6 total cpu time : 14385.8 secs   av.it.:  16.0
      thresh= 4.941E-07 alpha_mix =  0.700 |ddv_scf|^2 =  1.332E-13

      iter #   7 total cpu time : 14417.4 secs   av.it.:  15.4
      thresh= 3.650E-08 alpha_mix =  0.700 |ddv_scf|^2 =  2.918E-15

      iter #   8 total cpu time : 14450.4 secs   av.it.:  15.9
      thresh= 5.402E-09 alpha_mix =  0.700 |ddv_scf|^2 =  2.079E-15

      iter #   9 total cpu time : 14482.4 secs   av.it.:  15.6
      thresh= 4.560E-09 alpha_mix =  0.700 |ddv_scf|^2 =  1.221E-15

      iter #  10 total cpu time : 14515.1 secs   av.it.:  15.0
      thresh= 3.495E-09 alpha_mix =  0.700 |ddv_scf|^2 =  1.293E-17

      iter #  11 total cpu time : 14552.8 secs   av.it.:  16.0
      thresh= 3.596E-10 alpha_mix =  0.700 |ddv_scf|^2 =  2.039E-18

      iter #  12 total cpu time : 14588.2 secs   av.it.:  15.9
      thresh= 1.428E-10 alpha_mix =  0.700 |ddv_scf|^2 =  4.681E-19

      iter #  13 total cpu time : 14622.6 secs   av.it.:  15.7
      thresh= 6.842E-11 alpha_mix =  0.700 |ddv_scf|^2 =  5.924E-20

      iter #  14 total cpu time : 14654.8 secs   av.it.:  15.4
      thresh= 2.434E-11 alpha_mix =  0.700 |ddv_scf|^2 =  2.750E-21

      iter #  15 total cpu time : 14687.8 secs   av.it.:  16.0
      thresh= 5.244E-12 alpha_mix =  0.700 |ddv_scf|^2 =  6.897E-22

     End of self-consistent calculation

     Convergence has been achieved 
 
     Number of q in the star =    6
     List of q in the star:
          1   0.166666667   0.288675135   0.000000000
          2  -0.333333333   0.000000000   0.000000000
          3   0.166666667  -0.288675135   0.000000000
          4  -0.166666667   0.288675135   0.000000000
          5  -0.166666667  -0.288675135   0.000000000
          6   0.333333333   0.000000000   0.000000000

     Diagonalizing the dynamical matrix

     q = (    0.166666667   0.288675135   0.000000000 ) 

 **************************************************************************
     freq (    1) =       0.988909 [THz] =      32.986439 [cm-1]
     freq (    2) =       1.650209 [THz] =      55.045058 [cm-1]
     freq (    3) =       2.650230 [THz] =      88.402148 [cm-1]
     freq (    4) =       7.453399 [THz] =     248.618619 [cm-1]
     freq (    5) =       8.043363 [THz] =     268.297708 [cm-1]
     freq (    6) =       8.641368 [THz] =     288.245026 [cm-1]
     freq (    7) =       8.649893 [THz] =     288.529360 [cm-1]
     freq (    8) =      10.038437 [THz] =     334.846223 [cm-1]
     freq (    9) =      11.491141 [THz] =     383.303217 [cm-1]
 **************************************************************************

     Mode symmetry, C_s (m)     point group:

     freq (   1-   1) =         33.0  [cm-1]   --> A'                 
     freq (   2-   2) =         55.0  [cm-1]   --> A''                
     freq (   3-   3) =         88.4  [cm-1]   --> A'                 
     freq (   4-   4) =        248.6  [cm-1]   --> A'                 
     freq (   5-   5) =        268.3  [cm-1]   --> A''                
     freq (   6-   6) =        288.2  [cm-1]   --> A''                
     freq (   7-   7) =        288.5  [cm-1]   --> A'                 
     freq (   8-   8) =        334.8  [cm-1]   --> A''                
     freq (   9-   9) =        383.3  [cm-1]   --> A'                 

     Calculation of q =    0.1666667   0.3849002   0.0000000
 
     Parallelization info
     --------------------
     sticks:   dense  smooth     PW     G-vecs:    dense   smooth      PW
     Min          60      31     10                 7329     2593     492
     Max          62      32     11                 7342     2605     504
     Sum        1099     559    187               132031    46753    8959
 
     Using Slab Decomposition
 

     Title: 
     TaS2                                                                       


     bravais-lattice index     =            4
     lattice parameter (alat)  =       6.3117  a.u.
     unit-cell volume          =     977.9382 (a.u.)^3
     number of atoms/cell      =            3
     number of atomic types    =            2
     number of electrons       =        17.00
     number of Kohn-Sham states=           13
     kinetic-energy cutoff     =      50.0000  Ry
     charge density cutoff     =     400.0000  Ry
     Exchange-correlation= PBE
                           (   1   4   3   4   0   0   0)

     celldm(1)=   6.311685  celldm(2)=   0.000000  celldm(3)=   4.491018
     celldm(4)=   0.000000  celldm(5)=   0.000000  celldm(6)=   0.000000

     crystal axes: (cart. coord. in units of alat)
               a(1) = (   1.000000   0.000000   0.000000 )  
               a(2) = (  -0.500000   0.866025   0.000000 )  
               a(3) = (   0.000000   0.000000   4.491018 )  

     reciprocal axes: (cart. coord. in units 2 pi/alat)
               b(1) = (  1.000000  0.577350  0.000000 )  
               b(2) = (  0.000000  1.154701  0.000000 )  
               b(3) = (  0.000000  0.000000  0.222667 )  


     PseudoPot. # 1 for Ta read from file:
     /fastscratch/tsievers/TaS2_24_ph_benchmark_images//pseudos/Ta.pbe-hgh.UPF
     MD5 check sum: 129c51a9a4223465c43ca8d238d17e53
     Pseudo is Norm-conserving, Zval =  5.0
     Generated in analytical, separable form
     Using radial grid of 1273 points,  6 beta functions with: 
                l(1) =   0
                l(2) =   0
                l(3) =   1
                l(4) =   1
                l(5) =   2
                l(6) =   2

     PseudoPot. # 2 for S  read from file:
     /fastscratch/tsievers/TaS2_24_ph_benchmark_images//pseudos/S.pbe-hgh.UPF
     MD5 check sum: 3a21e384b95a7cc84d045d3bcc0c4ba8
     Pseudo is Norm-conserving, Zval =  6.0
     Generated in analytical, separable form
     Using radial grid of 1151 points,  3 beta functions with: 
[...]

      iter #   1 total cpu time : 49068.3 secs   av.it.:   8.4
      thresh= 1.000E-02 alpha_mix =  0.700 |ddv_scf|^2 =  8.044E-07

      iter #   2 total cpu time : 49077.7 secs   av.it.:  16.6
      thresh= 8.969E-05 alpha_mix =  0.700 |ddv_scf|^2 =  1.116E-06

      iter #   3 total cpu time : 49088.0 secs   av.it.:  15.5
      thresh= 1.057E-04 alpha_mix =  0.700 |ddv_scf|^2 =  1.791E-09

      iter #   4 total cpu time : 49102.1 secs   av.it.:  16.0
      thresh= 4.232E-06 alpha_mix =  0.700 |ddv_scf|^2 =  1.089E-10

      iter #   5 total cpu time : 49111.9 secs   av.it.:  15.4
      thresh= 1.044E-06 alpha_mix =  0.700 |ddv_scf|^2 =  1.145E-13

      iter #   6 total cpu time : 49122.1 secs   av.it.:  15.9
      thresh= 3.383E-08 alpha_mix =  0.700 |ddv_scf|^2 =  1.312E-14

      iter #   7 total cpu time : 49131.6 secs   av.it.:  16.5
      thresh= 1.145E-08 alpha_mix =  0.700 |ddv_scf|^2 =  3.519E-16

      iter #   8 total cpu time : 49141.9 secs   av.it.:  16.7
      thresh= 1.876E-09 alpha_mix =  0.700 |ddv_scf|^2 =  7.411E-18

      iter #   9 total cpu time : 49153.5 secs   av.it.:  16.4
      thresh= 2.722E-10 alpha_mix =  0.700 |ddv_scf|^2 =  1.377E-18

      iter #  10 total cpu time : 49162.8 secs   av.it.:  16.3
      thresh= 1.173E-10 alpha_mix =  0.700 |ddv_scf|^2 =  4.875E-19

      iter #  11 total cpu time : 49171.9 secs   av.it.:  15.8
      thresh= 6.982E-11 alpha_mix =  0.700 |ddv_scf|^2 =  4.614E-20

      iter #  12 total cpu time : 49182.1 secs   av.it.:  15.6
      thresh= 2.148E-11 alpha_mix =  0.700 |ddv_scf|^2 =  4.574E-22

     End of self-consistent calculation

     Convergence has been achieved 


     Representation #   3 mode #   3

     Self-consistent Calculation

      iter #   1 total cpu time : 49187.7 secs   av.it.:   7.7
      thresh= 1.000E-02 alpha_mix =  0.700 |ddv_scf|^2 =  3.594E-07

      iter #   2 total cpu time : 49197.6 secs   av.it.:  16.6
      thresh= 5.995E-05 alpha_mix =  0.700 |ddv_scf|^2 =  5.447E-07

      iter #   3 total cpu time : 49207.1 secs   av.it.:  15.4
      thresh= 7.380E-05 alpha_mix =  0.700 |ddv_scf|^2 =  2.206E-10

      iter #   4 total cpu time : 49221.5 secs   av.it.:  15.9
      thresh= 1.485E-06 alpha_mix =  0.700 |ddv_scf|^2 =  2.557E-11

      iter #   5 total cpu time : 49230.8 secs   av.it.:  16.2
      thresh= 5.057E-07 alpha_mix =  0.700 |ddv_scf|^2 =  4.493E-13

      iter #   6 total cpu time : 49241.6 secs   av.it.:  16.4
      thresh= 6.703E-08 alpha_mix =  0.700 |ddv_scf|^2 =  4.287E-14

      iter #   7 total cpu time : 49252.7 secs   av.it.:  16.6
      thresh= 2.071E-08 alpha_mix =  0.700 |ddv_scf|^2 =  1.786E-16

      iter #   8 total cpu time : 49262.5 secs   av.it.:  16.4
      thresh= 1.336E-09 alpha_mix =  0.700 |ddv_scf|^2 =  1.542E-17

      iter #   9 total cpu time : 49273.4 secs   av.it.:  16.0
      thresh= 3.927E-10 alpha_mix =  0.700 |ddv_scf|^2 =  9.679E-19

      iter #  10 total cpu time : 49283.3 secs   av.it.:  16.7
      thresh= 9.838E-11 alpha_mix =  0.700 |ddv_scf|^2 =  6.978E-20

      iter #  11 total cpu time : 49292.4 secs   av.it.:  16.2
      thresh= 2.642E-11 alpha_mix =  0.700 |ddv_scf|^2 =  1.386E-20

      iter #  12 total cpu time : 49303.5 secs   av.it.:  16.2
      thresh= 1.177E-11 alpha_mix =  0.700 |ddv_scf|^2 =  4.668E-21

      iter #  13 total cpu time : 49313.1 secs   av.it.:  15.9
      thresh= 6.832E-12 alpha_mix =  0.700 |ddv_scf|^2 =  3.726E-23

     End of self-consistent calculation

     Convergence has been achieved 


     Representation #   4 mode #   4

     Self-consistent Calculation

      iter #   1 total cpu time : 49318.9 secs   av.it.:   8.2
      thresh= 1.000E-02 alpha_mix =  0.700 |ddv_scf|^2 =  3.240E-07

      iter #   2 total cpu time : 49328.8 secs   av.it.:  16.4
      thresh= 5.692E-05 alpha_mix =  0.700 |ddv_scf|^2 =  1.692E-07

      iter #   3 total cpu time : 49339.0 secs   av.it.:  15.8
      thresh= 4.113E-05 alpha_mix =  0.700 |ddv_scf|^2 =  4.662E-09

      iter #   4 total cpu time : 49349.2 secs   av.it.:  16.3
      thresh= 6.828E-06 alpha_mix =  0.700 |ddv_scf|^2 =  1.703E-09

      iter #   5 total cpu time : 49358.8 secs   av.it.:  15.7
      thresh= 4.127E-06 alpha_mix =  0.700 |ddv_scf|^2 =  2.615E-12

      iter #   6 total cpu time : 49368.7 secs   av.it.:  15.9
      thresh= 1.617E-07 alpha_mix =  0.700 |ddv_scf|^2 =  6.829E-14

      iter #   7 total cpu time : 49378.3 secs   av.it.:  16.1
      thresh= 2.613E-08 alpha_mix =  0.700 |ddv_scf|^2 =  7.277E-16

      iter #   8 total cpu time : 49388.1 secs   av.it.:  15.4
      thresh= 2.698E-09 alpha_mix =  0.700 |ddv_scf|^2 =  1.702E-16

      iter #   9 total cpu time : 49398.8 secs   av.it.:  16.4
      thresh= 1.305E-09 alpha_mix =  0.700 |ddv_scf|^2 =  2.444E-18

      iter #  10 total cpu time : 49408.9 secs   av.it.:  16.1
      thresh= 1.563E-10 alpha_mix =  0.700 |ddv_scf|^2 =  1.356E-19

      iter #  11 total cpu time : 49426.9 secs   av.it.:  16.1
      thresh= 3.683E-11 alpha_mix =  0.700 |ddv_scf|^2 =  1.165E-20

      iter #  12 total cpu time : 49437.3 secs   av.it.:  16.4
      thresh= 1.079E-11 alpha_mix =  0.700 |ddv_scf|^2 =  1.860E-21

      iter #  13 total cpu time : 49446.3 secs   av.it.:  16.3
      thresh= 4.313E-12 alpha_mix =  0.700 |ddv_scf|^2 =  7.288E-22

     End of self-consistent calculation

     Convergence has been achieved 


     Representation #   5 mode #   5

     Self-consistent Calculation

      iter #   1 total cpu time : 49452.6 secs   av.it.:   7.7
      thresh= 1.000E-02 alpha_mix =  0.700 |ddv_scf|^2 =  2.223E-07

      iter #   2 total cpu time : 49463.2 secs   av.it.:  16.7
      thresh= 4.714E-05 alpha_mix =  0.700 |ddv_scf|^2 =  2.563E-07

      iter #   3 total cpu time : 49477.4 secs   av.it.:  15.7
      thresh= 5.063E-05 alpha_mix =  0.700 |ddv_scf|^2 =  2.470E-09

      iter #   4 total cpu time : 49489.2 secs   av.it.:  16.0
      thresh= 4.970E-06 alpha_mix =  0.700 |ddv_scf|^2 =  8.309E-11

      iter #   5 total cpu time : 49500.4 secs   av.it.:  15.5
      thresh= 9.115E-07 alpha_mix =  0.700 |ddv_scf|^2 =  3.412E-12

      iter #   6 total cpu time : 49509.4 secs   av.it.:  15.8
      thresh= 1.847E-07 alpha_mix =  0.700 |ddv_scf|^2 =  2.169E-14

      iter #   7 total cpu time : 49519.7 secs   av.it.:  16.2
      thresh= 1.473E-08 alpha_mix =  0.700 |ddv_scf|^2 =  3.602E-16

      iter #   8 total cpu time : 49530.6 secs   av.it.:  16.2
      thresh= 1.898E-09 alpha_mix =  0.700 |ddv_scf|^2 =  1.525E-17

      iter #   9 total cpu time : 49540.9 secs   av.it.:  16.1
      thresh= 3.905E-10 alpha_mix =  0.700 |ddv_scf|^2 =  1.083E-18

      iter #  10 total cpu time : 49551.9 secs   av.it.:  16.9
      thresh= 1.041E-10 alpha_mix =  0.700 |ddv_scf|^2 =  3.882E-19

      iter #  11 total cpu time : 49580.0 secs   av.it.:  16.4
      thresh= 6.231E-11 alpha_mix =  0.700 |ddv_scf|^2 =  2.581E-20

      iter #  12 total cpu time : 49590.9 secs   av.it.:  16.4
      thresh= 1.607E-11 alpha_mix =  0.700 |ddv_scf|^2 =  9.094E-21

      iter #  13 total cpu time : 49599.9 secs   av.it.:  16.2
      thresh= 9.536E-12 alpha_mix =  0.700 |ddv_scf|^2 =  9.708E-22

     End of self-consistent calculation

     Convergence has been achieved 


     Representation #   6 mode #   6

     Self-consistent Calculation

      iter #   1 total cpu time : 49605.8 secs   av.it.:   8.1
      thresh= 1.000E-02 alpha_mix =  0.700 |ddv_scf|^2 =  3.618E-07

      iter #   2 total cpu time : 49616.7 secs   av.it.:  16.3
      thresh= 6.015E-05 alpha_mix =  0.700 |ddv_scf|^2 =  1.675E-07

      iter #   3 total cpu time : 49626.1 secs   av.it.:  15.6
      thresh= 4.092E-05 alpha_mix =  0.700 |ddv_scf|^2 =  3.975E-10

      iter #   4 total cpu time : 49635.8 secs   av.it.:  14.3
      thresh= 1.994E-06 alpha_mix =  0.700 |ddv_scf|^2 =  2.188E-13

      iter #   5 total cpu time : 49646.2 secs   av.it.:  15.6
      thresh= 4.678E-08 alpha_mix =  0.700 |ddv_scf|^2 =  1.394E-14

      iter #   6 total cpu time : 49655.9 secs   av.it.:  15.7
      thresh= 1.180E-08 alpha_mix =  0.700 |ddv_scf|^2 =  1.393E-16

      iter #   7 total cpu time : 49664.9 secs   av.it.:  15.9
      thresh= 1.180E-09 alpha_mix =  0.700 |ddv_scf|^2 =  6.538E-18

      iter #   8 total cpu time : 49676.4 secs   av.it.:  16.3
      thresh= 2.557E-10 alpha_mix =  0.700 |ddv_scf|^2 =  1.226E-19

      iter #   9 total cpu time : 49686.8 secs   av.it.:  16.6
      thresh= 3.501E-11 alpha_mix =  0.700 |ddv_scf|^2 =  8.782E-21

      iter #  10 total cpu time : 49695.7 secs   av.it.:  16.1
      thresh= 9.371E-12 alpha_mix =  0.700 |ddv_scf|^2 =  4.748E-22

     End of self-consistent calculation

     Convergence has been achieved 


     Representation #   7 mode #   7

     Self-consistent Calculation

      iter #   1 total cpu time : 49701.8 secs   av.it.:   7.2
      thresh= 1.000E-02 alpha_mix =  0.700 |ddv_scf|^2 =  6.043E-08

      iter #   2 total cpu time : 49713.4 secs   av.it.:  16.4
      thresh= 2.458E-05 alpha_mix =  0.700 |ddv_scf|^2 =  2.617E-08

      iter #   3 total cpu time : 49726.2 secs   av.it.:  15.6
      thresh= 1.618E-05 alpha_mix =  0.700 |ddv_scf|^2 =  1.430E-10

      iter #   4 total cpu time : 49739.1 secs   av.it.:  14.8
      thresh= 1.196E-06 alpha_mix =  0.700 |ddv_scf|^2 =  1.637E-12

      iter #   5 total cpu time : 49748.4 secs   av.it.:  15.3
      thresh= 1.279E-07 alpha_mix =  0.700 |ddv_scf|^2 =  1.015E-14

      iter #   6 total cpu time : 49757.8 secs   av.it.:  16.2
      thresh= 1.007E-08 alpha_mix =  0.700 |ddv_scf|^2 =  4.396E-17

      iter #   7 total cpu time : 49769.4 secs   av.it.:  16.3
      thresh= 6.630E-10 alpha_mix =  0.700 |ddv_scf|^2 =  2.207E-18

      iter #   8 total cpu time : 49780.0 secs   av.it.:  16.0
      thresh= 1.486E-10 alpha_mix =  0.700 |ddv_scf|^2 =  1.078E-20

      iter #   9 total cpu time : 49789.6 secs   av.it.:  16.1
      thresh= 1.038E-11 alpha_mix =  0.700 |ddv_scf|^2 =  1.084E-21

      iter #  10 total cpu time : 49799.3 secs   av.it.:  16.5
      thresh= 3.292E-12 alpha_mix =  0.700 |ddv_scf|^2 =  2.823E-22

     End of self-consistent calculation

     Convergence has been achieved 


     Representation #   8 mode #   8

     Self-consistent Calculation

      iter #   1 total cpu time : 49806.9 secs   av.it.:   8.2
      thresh= 1.000E-02 alpha_mix =  0.700 |ddv_scf|^2 =  3.153E-07

      iter #   2 total cpu time : 49816.0 secs   av.it.:  16.3
      thresh= 5.615E-05 alpha_mix =  0.700 |ddv_scf|^2 =  1.176E-07

      iter #   3 total cpu time : 49824.8 secs   av.it.:  15.6
      thresh= 3.430E-05 alpha_mix =  0.700 |ddv_scf|^2 =  3.858E-10

      iter #   4 total cpu time : 49837.2 secs   av.it.:  14.3
      thresh= 1.964E-06 alpha_mix =  0.700 |ddv_scf|^2 =  1.879E-13

      iter #   5 total cpu time : 49846.5 secs   av.it.:  15.8
      thresh= 4.335E-08 alpha_mix =  0.700 |ddv_scf|^2 =  1.020E-14

      iter #   6 total cpu time : 49855.2 secs   av.it.:  15.5
      thresh= 1.010E-08 alpha_mix =  0.700 |ddv_scf|^2 =  1.374E-16

      iter #   7 total cpu time : 49864.8 secs   av.it.:  15.8
      thresh= 1.172E-09 alpha_mix =  0.700 |ddv_scf|^2 =  2.369E-18

      iter #   8 total cpu time : 49876.2 secs   av.it.:  16.1
      thresh= 1.539E-10 alpha_mix =  0.700 |ddv_scf|^2 =  1.134E-19

      iter #   9 total cpu time : 49885.8 secs   av.it.:  16.3
      thresh= 3.367E-11 alpha_mix =  0.700 |ddv_scf|^2 =  1.764E-20

      iter #  10 total cpu time : 49895.2 secs   av.it.:  15.9
      thresh= 1.328E-11 alpha_mix =  0.700 |ddv_scf|^2 =  2.072E-22

     End of self-consistent calculation

     Convergence has been achieved 


     Representation #   9 mode #   9

     Self-consistent Calculation

      iter #   1 total cpu time : 49901.8 secs   av.it.:   8.0
      thresh= 1.000E-02 alpha_mix =  0.700 |ddv_scf|^2 =  1.257E-07

      iter #   2 total cpu time : 49911.7 secs   av.it.:  16.2
      thresh= 3.545E-05 alpha_mix =  0.700 |ddv_scf|^2 =  5.112E-08

      iter #   3 total cpu time : 49921.8 secs   av.it.:  16.0
      thresh= 2.261E-05 alpha_mix =  0.700 |ddv_scf|^2 =  9.543E-09

      iter #   4 total cpu time : 49935.0 secs   av.it.:  15.7
      thresh= 9.769E-06 alpha_mix =  0.700 |ddv_scf|^2 =  2.994E-10

      iter #   5 total cpu time : 49944.2 secs   av.it.:  15.4
      thresh= 1.730E-06 alpha_mix =  0.700 |ddv_scf|^2 =  1.332E-13

      iter #   6 total cpu time : 49953.9 secs   av.it.:  14.8
      thresh= 3.650E-08 alpha_mix =  0.700 |ddv_scf|^2 =  2.190E-15

      iter #   7 total cpu time : 49963.5 secs   av.it.:  15.4
      thresh= 4.680E-09 alpha_mix =  0.700 |ddv_scf|^2 =  1.896E-17

      iter #   8 total cpu time : 49974.6 secs   av.it.:  16.0
      thresh= 4.354E-10 alpha_mix =  0.700 |ddv_scf|^2 =  9.354E-19

      iter #   9 total cpu time : 49984.7 secs   av.it.:  16.1
      thresh= 9.672E-11 alpha_mix =  0.700 |ddv_scf|^2 =  4.868E-20

      iter #  10 total cpu time : 49994.1 secs   av.it.:  16.4
      thresh= 2.206E-11 alpha_mix =  0.700 |ddv_scf|^2 =  7.184E-21

      iter #  11 total cpu time : 50004.6 secs   av.it.:  16.3
      thresh= 8.476E-12 alpha_mix =  0.700 |ddv_scf|^2 =  2.937E-21

      iter #  12 total cpu time : 50014.2 secs   av.it.:  16.0
      thresh= 5.420E-12 alpha_mix =  0.700 |ddv_scf|^2 =  3.103E-23

     End of self-consistent calculation

     Convergence has been achieved 
 
     Number of q in the star =    2
     List of q in the star:
          1   0.333333333   0.577350269   0.000000000
          2  -0.333333333   0.577350269   0.000000000

     Diagonalizing the dynamical matrix

     q = (    0.333333333   0.577350269   0.000000000 ) 

 **************************************************************************
     freq (    1) =      -0.798520 [THz] =     -26.635762 [cm-1]
     freq (    2) =       2.593070 [THz] =      86.495492 [cm-1]
     freq (    3) =       4.339704 [THz] =     144.756943 [cm-1]
     freq (    4) =       8.663122 [THz] =     288.970649 [cm-1]
     freq (    5) =       8.918116 [THz] =     297.476335 [cm-1]
     freq (    6) =       9.085497 [THz] =     303.059546 [cm-1]
     freq (    7) =       9.135381 [THz] =     304.723497 [cm-1]
     freq (    8) =       9.324426 [THz] =     311.029364 [cm-1]
     freq (    9) =      11.399953 [THz] =     380.261495 [cm-1]
 **************************************************************************

     Mode symmetry, C_3h (-6)   point group:

     freq (   1-   1) =        -26.6  [cm-1]   --> E'                 
     freq (   2-   2) =         86.5  [cm-1]   --> A''                
     freq (   3-   3) =        144.8  [cm-1]   --> E'*                
     freq (   4-   4) =        289.0  [cm-1]   --> E'                 
     freq (   5-   5) =        297.5  [cm-1]   --> A''                
     freq (   6-   6) =        303.1  [cm-1]   --> E''*               
     freq (   7-   7) =        304.7  [cm-1]   --> A'                 
     freq (   8-   8) =        311.0  [cm-1]   --> E''                
     freq (   9-   9) =        380.3  [cm-1]   --> E'*                
 
     init_run     :      1.61s CPU      7.60s WALL (       8 calls)
     electrons    :    745.59s CPU    812.13s WALL (       8 calls)

     Called by init_run:
     wfcinit      :      0.00s CPU      0.72s WALL (       8 calls)
     potinit      :      0.12s CPU      5.39s WALL (       8 calls)
     hinit0       :      0.78s CPU      0.78s WALL (       8 calls)

     Called by electrons:
     c_bands      :    745.42s CPU    811.96s WALL (       8 calls)
     v_of_rho     :      0.10s CPU      0.10s WALL (       9 calls)

     Called by c_bands:
     init_us_2    :    109.68s CPU    116.17s WALL (  867138 calls)
     init_us_2:cp :    107.34s CPU    114.05s WALL (  867138 calls)
     cegterg      :    569.76s CPU    583.94s WALL (   12632 calls)

     Called by *egterg:
     cdiaghg      :     78.33s CPU     80.49s WALL (  181552 calls)
     h_psi        :  27528.78s CPU  28435.34s WALL (18018651 calls)
     g_psi        :      3.59s CPU      3.69s WALL (  173100 calls)

     Called by h_psi:
     h_psi:calbec :   1200.40s CPU   1240.98s WALL (18018651 calls)
     vloc_psi     :  25342.83s CPU  26175.32s WALL (18018651 calls)
     add_vuspsi   :    798.86s CPU    834.18s WALL (18018651 calls)

     General routines
     calbec       :   2216.43s CPU   2306.66s WALL (36037514 calls)
     fft          :     12.37s CPU     14.52s WALL (   18533 calls)
     ffts         :     13.41s CPU     13.75s WALL (   41528 calls)
     fftw         :  36496.32s CPU  37442.40s WALL (******** calls)
     interpolate  :      2.19s CPU      2.28s WALL (    2846 calls)
     davcio       :    103.85s CPU   1987.48s WALL ( 3982693 calls)
 
     Parallel routines
 
     PHONON       :     12h44m CPU     13h53m WALL

     INITIALIZATION: 
     phq_setup    :      0.24s CPU      0.53s WALL (       8 calls)
     phq_init     :     11.23s CPU     13.55s WALL (       8 calls)
 
     phq_init     :     11.23s CPU     13.55s WALL (       8 calls)
     init_vloc    :      0.52s CPU      0.52s WALL (       9 calls)
     init_us_1    :      0.28s CPU      0.29s WALL (       9 calls)
     init_us_2    :    109.68s CPU    116.17s WALL (  867138 calls)
 
     DYNAMICAL MATRIX:
     dynmat0      :      5.37s CPU      7.44s WALL (       8 calls)
     phqscf       :  45042.96s CPU  49103.11s WALL (       8 calls)
     dynmatrix    :      1.55s CPU      1.79s WALL (       8 calls)
 
     phqscf       :  45042.96s CPU  49103.11s WALL (       8 calls)
     solve_linter :  45019.07s CPU  49050.87s WALL (      72 calls)
     drhodv       :     23.82s CPU     25.08s WALL (      72 calls)
 
     dynmat0      :      5.37s CPU      7.44s WALL (       8 calls)
     dynmat_us    :      5.34s CPU      5.52s WALL (       8 calls)
     d2ionq       :      0.03s CPU      0.03s WALL (       8 calls)
 
     dynmat_us    :      5.34s CPU      5.52s WALL (       8 calls)
 
     phqscf       :  45042.96s CPU  49103.11s WALL (       8 calls)
     solve_linter :  45019.07s CPU  49050.87s WALL (      72 calls)
 
     solve_linter :  45019.07s CPU  49050.87s WALL (      72 calls)
     dvqpsi_us    :    137.44s CPU    142.80s WALL (   38034 calls)
     sth_kernel   :  43985.21s CPU  47006.13s WALL (    1415 calls)
     apply_dpot_b :   1562.79s CPU   1649.56s WALL (  736132 calls)
     ortho        :     96.53s CPU    101.42s WALL (  774166 calls)
     cgsolve      :  30601.13s CPU  31618.37s WALL (  774166 calls)
     incdrhoscf   :  11423.60s CPU  11510.32s WALL (  774166 calls)
     dv_of_drho   :     14.22s CPU     17.12s WALL (    1415 calls)
     mix_pot      :    233.53s CPU    707.08s WALL (    1415 calls)
     psymdvscf    :     48.47s CPU     53.84s WALL (    1415 calls)
 
     dvqpsi_us    :    137.44s CPU    142.80s WALL (   38034 calls)
     dvqpsi_us_on :     11.00s CPU     11.45s WALL (   38034 calls)
 
     cgsolve      :  30601.13s CPU  31618.37s WALL (  774166 calls)
     ch_psi       :  29663.17s CPU  30635.24s WALL (17824467 calls)
 
     ch_psi       :  29663.17s CPU  30635.24s WALL (17824467 calls)
     h_psi        :  27528.78s CPU  28435.34s WALL (18018651 calls)
     last         :   2321.70s CPU   2402.26s WALL (17824467 calls)
 
     h_psi        :  27528.78s CPU  28435.34s WALL (18018651 calls)
     add_vuspsi   :    798.86s CPU    834.18s WALL (18018651 calls)
 
     incdrhoscf   :  11423.60s CPU  11510.32s WALL (  774166 calls)
 
 
      General routines
     calbec       :   2216.43s CPU   2306.66s WALL (36037514 calls)
     fft          :     12.37s CPU     14.52s WALL (   18533 calls)
     ffts         :     13.41s CPU     13.75s WALL (   41528 calls)
     fftw         :  36496.32s CPU  37442.40s WALL (******** calls)
     davcio       :    103.85s CPU   1987.48s WALL ( 3982693 calls)
     write_rec    :      1.27s CPU    517.01s WALL (    1487 calls)
 
     PHONON       :     12h44m CPU     13h53m WALL

