
     Program PHONON v.7.0 starts on  7Jun2022 at 13:51:40 

     This program is part of the open-source Quantum ESPRESSO suite
     for quantum simulation of materials; please cite
         "P. Giannozzi et al., J. Phys.:Condens. Matter 21 395502 (2009);
         "P. Giannozzi et al., J. Phys.:Condens. Matter 29 465901 (2017);
         "P. Giannozzi et al., J. Chem. Phys. 152 154105 (2020);
          URL http://www.quantum-espresso.org", 
     in publications or presentations arising from this work. More details at
     http://www.quantum-espresso.org/quote

     Parallel version (MPI), running on    36 processors

     MPI processes distributed on     2 nodes
     path-images division:  nimage    =       2
     R & G space division:  proc/nbgrp/npool/nimage =      18
     32123 MiB available memory on the printing compute node when the environment starts
 
     Reading input from /fastscratch/tsievers/TaS2_24_ph_benchmark_images/TaS2_24_ph_bench_nimages_2_n_procs_36_0.ph

     Reading xml data from directory:

     /fastscratch/tsievers/QE_TMP_DIR/TaS2_24_ph_bench_nimages_2_n_procs_36_0.save/

     IMPORTANT: XC functional enforced from input :
     Exchange-correlation= PBE
                           (   1   4   3   4   0   0   0)
     Any further DFT definition will be discarded
     Please, verify this is what you really want

 
     Parallelization info
     --------------------
     sticks:   dense  smooth     PW     G-vecs:    dense   smooth      PW
     Min          60      31      9                 7329     2593     419
     Max          62      32     10                 7342     2605     434
     Sum        1099     559    163               132031    46753    7647
 
     Using Slab Decomposition
 
 ----2D----2D----2D----2D----2D----2D----2D----2D----2D----2D----2D----2D
  The code is running with the 2D cutoff
  Please refer to:
  Sohier, T., Calandra, M., & Mauri, F. (2017), 
  Density functional perturbation theory for gated two-dimensional heterostructu
 res:
  Theoretical developments and application to flexural phonons in graphene.
  Physical Review B, 96(7), 75448. https://doi.org/10.1103/PhysRevB.96.075448
 ----2D----2D----2D----2D----2D----2D----2D----2D----2D----2D----2D----2D
     Reading collected, re-writing distributed wavefunctions


     Dynamical matrices for (12,12, 1)  uniform grid of q-points
     (  19 q-points):
       N         xq(1)         xq(2)         xq(3) 
       1   0.000000000   0.000000000   0.000000000
       2   0.000000000   0.096225045   0.000000000
       3   0.000000000   0.192450090   0.000000000
       4   0.000000000   0.288675135   0.000000000
       5   0.000000000   0.384900179   0.000000000
       6   0.000000000   0.481125224   0.000000000
       7   0.000000000  -0.577350269   0.000000000
       8   0.083333333   0.144337567   0.000000000
       9   0.083333333   0.240562612   0.000000000
      10   0.083333333   0.336787657   0.000000000
      11   0.083333333   0.433012702   0.000000000
      12   0.083333333   0.529237747   0.000000000
      13   0.166666667   0.288675135   0.000000000
      14   0.166666667   0.384900179   0.000000000
      15   0.166666667   0.481125224   0.000000000
      16   0.166666667   0.577350269   0.000000000
      17   0.250000000   0.433012702   0.000000000
      18   0.250000000   0.529237747   0.000000000
      19   0.333333333   0.577350269   0.000000000

     Saving dvscf to file. Distribute only q points, not irreducible represetations.

      Image parallelization. There are  2 images and     2 representations
      The estimated total work is   870 self-consistent (scf) runs
      I am image number     0 and my work is about  430 scf runs. I calculate: 
      q point number     1, representations:
       0 1 2 3 4 5 6
      q point number     2, representations:
       0 1 2 3 4 5 6 7 8 9
      q point number     3, representations:
       0 1 2 3 4 5 6 7 8 9
      q point number     4, representations:
       0 1 2 3 4 5 6 7 8 9
      q point number     5, representations:
       0 1 2 3 4 5 6 7 8 9
      q point number     6, representations:
       0 1 2 3 4 5 6 7 8 9
      q point number     7, representations:
       0 1 2 3 4 5 6 7 8 9
      q point number     8, representations:
       0 1 2 3 4 5 6 7 8 9
      q point number     9, representations:
       0 1 2 3 4 5 6 7 8 9
      q point number    10, representations:
       0 1 2 3 4 5 6 7 8 9
      q point number    11, representations:
       0 1 2 3 4 5 6 7 8 9

     Calculation of q =    0.0000000   0.0000000   0.0000000

     TaS2                                                                       

     bravais-lattice index     =            4
     lattice parameter (alat)  =       6.3117  a.u.
     unit-cell volume          =     977.9382 (a.u.)^3
     number of atoms/cell      =            3
     number of atomic types    =            2
     kinetic-energy cut-off    =      50.0000  Ry
     charge density cut-off    =     400.0000  Ry
     convergence threshold     =      1.0E-21
     beta                      =       0.7000
     number of iterations used =            4
     Exchange-correlation= PBE
                           (   1   4   3   4   0   0   0)


     celldm(1)=    6.31169  celldm(2)=    0.00000  celldm(3)=    4.49102
     celldm(4)=    0.00000  celldm(5)=    0.00000  celldm(6)=    0.00000

     crystal axes: (cart. coord. in units of alat)
               a(1) = (  1.0000  0.0000  0.0000 )  
               a(2) = ( -0.5000  0.8660  0.0000 )  
               a(3) = (  0.0000  0.0000  4.4910 )  

     reciprocal axes: (cart. coord. in units 2 pi/alat)
               b(1) = (  1.0000  0.5774  0.0000 )  
               b(2) = (  0.0000  1.1547  0.0000 )  
               b(3) = (  0.0000  0.0000  0.2227 )  


     Atoms inside the unit cell: 

     Cartesian axes

     site n.  atom      mass           positions (alat units)
        1     S   32.0600   tau(    1) = (   -0.00000    0.57735    0.46790  )
        2     Ta 180.9500   tau(    2) = (    0.00000    0.00000    0.00000  )
        3     S   32.0600   tau(    3) = (   -0.00000    0.57735   -0.46790  )

     Computing dynamical matrix for 
                    q = (   0.0000000   0.0000000   0.0000000 )
 
     13 Sym.Ops. (with q -> -q+G )


     G cutoff =  403.6370  (   7330 G-vectors)     FFT grid: ( 45, 45,192)
     G cutoff =  201.8185  (   2599 G-vectors)  smooth grid: ( 30, 30,128)

     number of k points=    61  Marzari-Vanderbilt smearing, width (Ry)=  0.0060

     PseudoPot. # 1 for Ta read from file:
     /fastscratch/tsievers/TaS2_24_ph_benchmark_images//pseudos/Ta.pbe-hgh.UPF
     MD5 check sum: 129c51a9a4223465c43ca8d238d17e53
     Pseudo is Norm-conserving, Zval =  5.0
     Generated in analytical, separable form
     Using radial grid of 1273 points,  6 beta functions with: 
                l(1) =   0
                l(2) =   0
                l(3) =   1
                l(4) =   1
                l(5) =   2
                l(6) =   2

     PseudoPot. # 2 for S  read from file:
     /fastscratch/tsievers/TaS2_24_ph_benchmark_images//pseudos/S.pbe-hgh.UPF
     MD5 check sum: 3a21e384b95a7cc84d045d3bcc0c4ba8
     Pseudo is Norm-conserving, Zval =  6.0
     Generated in analytical, separable form
     Using radial grid of 1151 points,  3 beta functions with: 
                l(1) =   0
                l(2) =   0
                l(3) =   1

     Mode symmetry, D_3h (-62m) point group:


     Atomic displacements:
     There are    6 irreducible representations

     Representation     1      1 modes -  To be done

     Representation     2      2 modes -  To be done

     Representation     3      2 modes -  To be done

     Representation     4      1 modes -  To be done

     Representation     5      1 modes -  To be done

     Representation     6      2 modes -  To be done



     Alpha used in Ewald sum =   2.8000
     PHONON       :     20.14s CPU     33.19s WALL



     Representation #   1 mode #   1

     Self-consistent Calculation
 
     Pert. #  1: Fermi energy shift (Ry) =    -2.3654E+00    -3.3881E-20

      iter #   1 total cpu time :    35.6 secs   av.it.:   9.1
      thresh= 1.000E-02 alpha_mix =  0.700 |ddv_scf|^2 =  3.675E-05
 
     Pert. #  1: Fermi energy shift (Ry) =     5.2009E+00     4.7646E-22

      iter #   2 total cpu time :    39.4 secs   av.it.:  15.1
      thresh= 6.062E-04 alpha_mix =  0.700 |ddv_scf|^2 =  2.117E-04
 
     Pert. #  1: Fermi energy shift (Ry) =    -2.3846E-01    -1.9058E-21

      iter #   3 total cpu time :    42.7 secs   av.it.:  13.3
      thresh= 1.455E-03 alpha_mix =  0.700 |ddv_scf|^2 =  8.227E-07
 
     Pert. #  1: Fermi energy shift (Ry) =     3.6102E-02     5.2940E-23

      iter #   4 total cpu time :    45.7 secs   av.it.:  14.0
      thresh= 9.070E-05 alpha_mix =  0.700 |ddv_scf|^2 =  4.243E-08
 
     Pert. #  1: Fermi energy shift (Ry) =    -2.2915E-02    -6.6174E-24

      iter #   5 total cpu time :    48.3 secs   av.it.:  13.7
      thresh= 2.060E-05 alpha_mix =  0.700 |ddv_scf|^2 =  3.502E-11
 
     Pert. #  1: Fermi energy shift (Ry) =    -2.4895E-02     3.1019E-25

      iter #   6 total cpu time :    57.8 secs   av.it.:  14.6
      thresh= 5.918E-07 alpha_mix =  0.700 |ddv_scf|^2 =  3.489E-13
 
     Pert. #  1: Fermi energy shift (Ry) =    -2.5270E-02     7.7548E-26

      iter #   7 total cpu time :    62.6 secs   av.it.:  12.8
      thresh= 5.907E-08 alpha_mix =  0.700 |ddv_scf|^2 =  9.485E-15
 
     Pert. #  1: Fermi energy shift (Ry) =    -2.5355E-02    -4.8468E-27

      iter #   8 total cpu time :    73.3 secs   av.it.:  15.1
      thresh= 9.739E-09 alpha_mix =  0.700 |ddv_scf|^2 =  2.924E-16
 
     Pert. #  1: Fermi energy shift (Ry) =    -2.5344E-02     3.6351E-27

      iter #   9 total cpu time :    76.8 secs   av.it.:  15.0
      thresh= 1.710E-09 alpha_mix =  0.700 |ddv_scf|^2 =  2.247E-16
 
     Pert. #  1: Fermi energy shift (Ry) =    -2.5338E-02     4.8468E-27

      iter #  10 total cpu time :    79.6 secs   av.it.:  13.9
      thresh= 1.499E-09 alpha_mix =  0.700 |ddv_scf|^2 =  6.165E-18
 
     Pert. #  1: Fermi energy shift (Ry) =    -2.5340E-02     4.4429E-27

      iter #  11 total cpu time :    82.3 secs   av.it.:  15.1
      thresh= 2.483E-10 alpha_mix =  0.700 |ddv_scf|^2 =  3.200E-21
 
     Pert. #  1: Fermi energy shift (Ry) =    -2.5340E-02     4.4429E-27

      iter #  12 total cpu time :    84.8 secs   av.it.:  15.0
      thresh= 5.657E-12 alpha_mix =  0.700 |ddv_scf|^2 =  1.667E-22

     End of self-consistent calculation

     Convergence has been achieved 


     Representation #   2 modes #   2   3

     Self-consistent Calculation
 
     Pert. #  1: Fermi energy shift (Ry) =     2.6021E-18     1.8808E-36
     Pert. #  2: Fermi energy shift (Ry) =     2.8912E-19    -3.1347E-37

      iter #   1 total cpu time :    95.3 secs   av.it.:   6.9
      thresh= 1.000E-02 alpha_mix =  0.700 |ddv_scf|^2 =  1.736E-09
 
     Pert. #  1: Fermi energy shift (Ry) =     2.3130E-18    -7.3468E-40
     Pert. #  2: Fermi energy shift (Ry) =     2.6021E-18    -1.1020E-39

      iter #   2 total cpu time :   115.6 secs   av.it.:  17.1
      thresh= 4.166E-06 alpha_mix =  0.700 |ddv_scf|^2 =  1.189E-10
 
     Pert. #  1: Fermi energy shift (Ry) =     2.0238E-18     6.1224E-40
     Pert. #  2: Fermi energy shift (Ry) =     0.0000E+00     4.2857E-40

      iter #   3 total cpu time :   124.7 secs   av.it.:  16.6
      thresh= 1.090E-06 alpha_mix =  0.700 |ddv_scf|^2 =  1.226E-11
 
     Pert. #  1: Fermi energy shift (Ry) =     2.3130E-18    -9.1835E-41
     Pert. #  2: Fermi energy shift (Ry) =     1.4456E-18     6.1224E-41

      iter #   4 total cpu time :   134.2 secs   av.it.:  16.7
      thresh= 3.501E-07 alpha_mix =  0.700 |ddv_scf|^2 =  2.266E-13
 
     Pert. #  1: Fermi energy shift (Ry) =     2.3130E-18     3.4438E-41
     Pert. #  2: Fermi energy shift (Ry) =    -2.8912E-19     1.9132E-41

      iter #   5 total cpu time :   141.6 secs   av.it.:  16.9
      thresh= 4.760E-08 alpha_mix =  0.700 |ddv_scf|^2 =  3.638E-15
 
     Pert. #  1: Fermi energy shift (Ry) =     3.7586E-18    -9.5662E-43
     Pert. #  2: Fermi energy shift (Ry) =     2.8912E-19    -1.0762E-42

      iter #   6 total cpu time :   154.0 secs   av.it.:  17.1
      thresh= 6.032E-09 alpha_mix =  0.700 |ddv_scf|^2 =  2.452E-17
 
     Pert. #  1: Fermi energy shift (Ry) =     2.3130E-18    -5.4184E-44
     Pert. #  2: Fermi energy shift (Ry) =     5.7824E-19     1.8684E-45

      iter #   7 total cpu time :   160.0 secs   av.it.:  17.3
      thresh= 4.951E-10 alpha_mix =  0.700 |ddv_scf|^2 =  5.306E-19
 
     Pert. #  1: Fermi energy shift (Ry) =     2.3130E-18     4.4842E-44
     Pert. #  2: Fermi energy shift (Ry) =     2.0238E-18     1.0463E-43

      iter #   8 total cpu time :   167.4 secs   av.it.:  16.4
      thresh= 7.285E-11 alpha_mix =  0.700 |ddv_scf|^2 =  8.869E-21
 
     Pert. #  1: Fermi energy shift (Ry) =     8.6736E-19     4.4842E-44
     Pert. #  2: Fermi energy shift (Ry) =    -2.8912E-19     5.9789E-44

      iter #   9 total cpu time :   174.0 secs   av.it.:  16.3
      thresh= 9.418E-12 alpha_mix =  0.700 |ddv_scf|^2 =  4.364E-23

     End of self-consistent calculation

     Convergence has been achieved 


     Representation #   3 modes #   4   5

     Self-consistent Calculation
 
     Pert. #  1: Fermi energy shift (Ry) =    -8.6736E-19    -2.5077E-37
     Pert. #  2: Fermi energy shift (Ry) =     5.0596E-19    -1.2539E-37

      iter #   1 total cpu time :   179.1 secs   av.it.:   7.8
      thresh= 1.000E-02 alpha_mix =  0.700 |ddv_scf|^2 =  1.530E-08
 
     Pert. #  1: Fermi energy shift (Ry) =    -1.4456E-18     1.2245E-40
     Pert. #  2: Fermi energy shift (Ry) =     0.0000E+00     8.5713E-40

      iter #   2 total cpu time :   191.1 secs   av.it.:  17.3
      thresh= 1.237E-05 alpha_mix =  0.700 |ddv_scf|^2 =  1.612E-09
 
     Pert. #  1: Fermi energy shift (Ry) =    -8.6736E-19    -6.1224E-41
     Pert. #  2: Fermi energy shift (Ry) =    -2.8912E-19    -4.2857E-40

      iter #   3 total cpu time :   203.9 secs   av.it.:  17.0
      thresh= 4.015E-06 alpha_mix =  0.700 |ddv_scf|^2 =  5.840E-11
 
     Pert. #  1: Fermi energy shift (Ry) =    -8.6736E-19     3.0612E-41
     Pert. #  2: Fermi energy shift (Ry) =    -5.7824E-19     1.5306E-41

      iter #   4 total cpu time :   214.2 secs   av.it.:  15.4
      thresh= 7.642E-07 alpha_mix =  0.700 |ddv_scf|^2 =  2.109E-14
 
     Pert. #  1: Fermi energy shift (Ry) =    -1.4456E-18    -4.7831E-43
     Pert. #  2: Fermi energy shift (Ry) =    -1.3010E-18     0.0000E+00

      iter #   5 total cpu time :   221.4 secs   av.it.:  16.6
      thresh= 1.452E-08 alpha_mix =  0.700 |ddv_scf|^2 =  9.088E-16
 
     Pert. #  1: Fermi energy shift (Ry) =    -2.6021E-18     2.9894E-44
     Pert. #  2: Fermi energy shift (Ry) =    -8.6736E-19     2.0926E-43

      iter #   6 total cpu time :   233.1 secs   av.it.:  17.0
      thresh= 3.015E-09 alpha_mix =  0.700 |ddv_scf|^2 =  1.481E-17
 
     Pert. #  1: Fermi energy shift (Ry) =    -8.6736E-19     2.9894E-44
     Pert. #  2: Fermi energy shift (Ry) =    -5.7824E-19     2.2421E-44

      iter #   7 total cpu time :   240.2 secs   av.it.:  17.3
      thresh= 3.848E-10 alpha_mix =  0.700 |ddv_scf|^2 =  1.927E-19
 
     Pert. #  1: Fermi energy shift (Ry) =    -1.7347E-18     2.9894E-44
     Pert. #  2: Fermi energy shift (Ry) =    -1.4456E-19     2.2421E-44

      iter #   8 total cpu time :   246.4 secs   av.it.:  17.3
      thresh= 4.390E-11 alpha_mix =  0.700 |ddv_scf|^2 =  3.089E-21
 
     Pert. #  1: Fermi energy shift (Ry) =    -1.4456E-18     2.9894E-44
     Pert. #  2: Fermi energy shift (Ry) =     8.6736E-19     2.2421E-44

      iter #   9 total cpu time :   252.3 secs   av.it.:  17.5
      thresh= 5.558E-12 alpha_mix =  0.700 |ddv_scf|^2 =  4.303E-23

     End of self-consistent calculation

     Convergence has been achieved 


     Representation #   4 mode #   6

     Self-consistent Calculation
 
     Pert. #  1: Fermi energy shift (Ry) =     0.0000E+00     0.0000E+00

      iter #   1 total cpu time :   272.7 secs   av.it.:   8.6
      thresh= 1.000E-02 alpha_mix =  0.700 |ddv_scf|^2 =  1.561E-04
 
     Pert. #  1: Fermi energy shift (Ry) =     0.0000E+00     0.0000E+00

      iter #   2 total cpu time :   277.3 secs   av.it.:  14.5
      thresh= 1.249E-03 alpha_mix =  0.700 |ddv_scf|^2 =  6.890E-03
 
     Pert. #  1: Fermi energy shift (Ry) =     0.0000E+00     0.0000E+00

      iter #   3 total cpu time :   279.7 secs   av.it.:  11.0
      thresh= 8.301E-03 alpha_mix =  0.700 |ddv_scf|^2 =  1.498E-08
 
     Pert. #  1: Fermi energy shift (Ry) =     0.0000E+00     0.0000E+00

      iter #   4 total cpu time :   284.6 secs   av.it.:  15.5
      thresh= 1.224E-05 alpha_mix =  0.700 |ddv_scf|^2 =  5.033E-08
 
     Pert. #  1: Fermi energy shift (Ry) =     0.0000E+00     0.0000E+00

      iter #   5 total cpu time :   292.3 secs   av.it.:  12.9
      thresh= 2.243E-05 alpha_mix =  0.700 |ddv_scf|^2 =  1.058E-09
 
     Pert. #  1: Fermi energy shift (Ry) =     0.0000E+00     0.0000E+00

      iter #   6 total cpu time :   296.7 secs   av.it.:  12.5
      thresh= 3.253E-06 alpha_mix =  0.700 |ddv_scf|^2 =  1.858E-10
 
     Pert. #  1: Fermi energy shift (Ry) =     0.0000E+00     0.0000E+00

      iter #   7 total cpu time :   299.2 secs   av.it.:  11.8
      thresh= 1.363E-06 alpha_mix =  0.700 |ddv_scf|^2 =  4.004E-13
 
     Pert. #  1: Fermi energy shift (Ry) =     0.0000E+00     0.0000E+00

      iter #   8 total cpu time :   302.9 secs   av.it.:  12.1
      thresh= 6.327E-08 alpha_mix =  0.700 |ddv_scf|^2 =  2.337E-16
 
     Pert. #  1: Fermi energy shift (Ry) =     0.0000E+00     0.0000E+00

      iter #   9 total cpu time :   306.1 secs   av.it.:  15.4
      thresh= 1.529E-09 alpha_mix =  0.700 |ddv_scf|^2 =  7.968E-16
 
     Pert. #  1: Fermi energy shift (Ry) =     0.0000E+00     0.0000E+00

      iter #  10 total cpu time :   310.7 secs   av.it.:  11.3
      thresh= 2.823E-09 alpha_mix =  0.700 |ddv_scf|^2 =  2.125E-16
 
     Pert. #  1: Fermi energy shift (Ry) =     0.0000E+00     0.0000E+00

      iter #  11 total cpu time :   314.5 secs   av.it.:  11.8
      thresh= 1.458E-09 alpha_mix =  0.700 |ddv_scf|^2 =  8.145E-19
 
     Pert. #  1: Fermi energy shift (Ry) =     0.0000E+00     0.0000E+00

      iter #  12 total cpu time :   317.8 secs   av.it.:  11.8
      thresh= 9.025E-11 alpha_mix =  0.700 |ddv_scf|^2 =  1.152E-21
 
     Pert. #  1: Fermi energy shift (Ry) =     0.0000E+00     0.0000E+00

      iter #  13 total cpu time :   320.8 secs   av.it.:  14.1
      thresh= 3.394E-12 alpha_mix =  0.700 |ddv_scf|^2 =  1.403E-21
 
     Pert. #  1: Fermi energy shift (Ry) =     0.0000E+00     0.0000E+00

      iter #  14 total cpu time :   323.2 secs   av.it.:  11.5
      thresh= 3.746E-12 alpha_mix =  0.700 |ddv_scf|^2 =  3.795E-24

     End of self-consistent calculation

     Convergence has been achieved 


     Representation #   5 mode #   7

     Self-consistent Calculation
 
     Pert. #  1: Fermi energy shift (Ry) =     0.0000E+00     0.0000E+00

      iter #   1 total cpu time :   326.5 secs   av.it.:   8.9
      thresh= 1.000E-02 alpha_mix =  0.700 |ddv_scf|^2 =  2.721E-04
 
     Pert. #  1: Fermi energy shift (Ry) =     0.0000E+00     0.0000E+00

      iter #   2 total cpu time :   331.4 secs   av.it.:  14.5
      thresh= 1.649E-03 alpha_mix =  0.700 |ddv_scf|^2 =  1.145E-02
 
     Pert. #  1: Fermi energy shift (Ry) =     0.0000E+00     0.0000E+00

      iter #   3 total cpu time :   337.4 secs   av.it.:  11.2
      thresh= 1.000E-02 alpha_mix =  0.700 |ddv_scf|^2 =  3.720E-06
 
     Pert. #  1: Fermi energy shift (Ry) =     0.0000E+00     0.0000E+00

      iter #   4 total cpu time :   340.1 secs   av.it.:  13.2
      thresh= 1.929E-04 alpha_mix =  0.700 |ddv_scf|^2 =  6.135E-07
 
     Pert. #  1: Fermi energy shift (Ry) =     0.0000E+00     0.0000E+00

      iter #   5 total cpu time :   342.5 secs   av.it.:  12.6
      thresh= 7.833E-05 alpha_mix =  0.700 |ddv_scf|^2 =  2.639E-10
 
     Pert. #  1: Fermi energy shift (Ry) =     0.0000E+00     0.0000E+00

      iter #   6 total cpu time :   346.5 secs   av.it.:  12.4
      thresh= 1.624E-06 alpha_mix =  0.700 |ddv_scf|^2 =  7.640E-12
 
     Pert. #  1: Fermi energy shift (Ry) =     0.0000E+00     0.0000E+00

      iter #   7 total cpu time :   351.0 secs   av.it.:  12.3
      thresh= 2.764E-07 alpha_mix =  0.700 |ddv_scf|^2 =  3.958E-13
 
     Pert. #  1: Fermi energy shift (Ry) =     0.0000E+00     0.0000E+00

      iter #   8 total cpu time :   354.7 secs   av.it.:  12.1
      thresh= 6.292E-08 alpha_mix =  0.700 |ddv_scf|^2 =  4.734E-15
 
     Pert. #  1: Fermi energy shift (Ry) =     0.0000E+00     0.0000E+00

      iter #   9 total cpu time :   362.7 secs   av.it.:  12.6
      thresh= 6.881E-09 alpha_mix =  0.700 |ddv_scf|^2 =  1.256E-16
 
     Pert. #  1: Fermi energy shift (Ry) =     0.0000E+00     0.0000E+00

      iter #  10 total cpu time :   365.2 secs   av.it.:  11.5
      thresh= 1.121E-09 alpha_mix =  0.700 |ddv_scf|^2 =  3.765E-17
 
     Pert. #  1: Fermi energy shift (Ry) =     0.0000E+00     0.0000E+00

      iter #  11 total cpu time :   368.1 secs   av.it.:  12.0
      thresh= 6.136E-10 alpha_mix =  0.700 |ddv_scf|^2 =  4.823E-20
 
     Pert. #  1: Fermi energy shift (Ry) =     0.0000E+00     0.0000E+00

      iter #  12 total cpu time :   371.2 secs   av.it.:  14.2
      thresh= 2.196E-11 alpha_mix =  0.700 |ddv_scf|^2 =  1.178E-19
 
     Pert. #  1: Fermi energy shift (Ry) =     0.0000E+00     0.0000E+00

      iter #  13 total cpu time :   374.0 secs   av.it.:  11.9
      thresh= 3.433E-11 alpha_mix =  0.700 |ddv_scf|^2 =  4.548E-21
 
     Pert. #  1: Fermi energy shift (Ry) =     0.0000E+00     0.0000E+00

      iter #  14 total cpu time :   376.3 secs   av.it.:  12.0
      thresh= 6.744E-12 alpha_mix =  0.700 |ddv_scf|^2 =  8.638E-25

     End of self-consistent calculation

     Convergence has been achieved 


     Representation #   6 modes #   8   9

     Self-consistent Calculation
 
     Pert. #  1: Fermi energy shift (Ry) =     3.4466E-26     3.8265E-42
     Pert. #  2: Fermi energy shift (Ry) =     1.7233E-26     0.0000E+00

      iter #   1 total cpu time :   380.4 secs   av.it.:   7.8
      thresh= 1.000E-02 alpha_mix =  0.700 |ddv_scf|^2 =  1.295E-08
 
     Pert. #  1: Fermi energy shift (Ry) =     0.0000E+00     0.0000E+00
     Pert. #  2: Fermi energy shift (Ry) =    -5.3853E-28    -2.9894E-44

      iter #   2 total cpu time :   387.3 secs   av.it.:  17.3
      thresh= 1.138E-05 alpha_mix =  0.700 |ddv_scf|^2 =  1.152E-09
 
     Pert. #  1: Fermi energy shift (Ry) =     0.0000E+00     4.7831E-43
     Pert. #  2: Fermi energy shift (Ry) =     6.4623E-27    -1.1958E-43

      iter #   3 total cpu time :   402.0 secs   av.it.:  16.9
      thresh= 3.394E-06 alpha_mix =  0.700 |ddv_scf|^2 =  5.407E-11
 
     Pert. #  1: Fermi energy shift (Ry) =     0.0000E+00     2.9894E-44
     Pert. #  2: Fermi energy shift (Ry) =    -4.3082E-27     0.0000E+00

      iter #   4 total cpu time :   408.1 secs   av.it.:  15.4
      thresh= 7.353E-07 alpha_mix =  0.700 |ddv_scf|^2 =  1.480E-14
 
     Pert. #  1: Fermi energy shift (Ry) =     0.0000E+00     1.4947E-44
     Pert. #  2: Fermi energy shift (Ry) =     0.0000E+00     0.0000E+00

      iter #   5 total cpu time :   414.1 secs   av.it.:  16.5
      thresh= 1.216E-08 alpha_mix =  0.700 |ddv_scf|^2 =  6.501E-16
 
     Pert. #  1: Fermi energy shift (Ry) =    -2.1541E-27     1.4947E-44
     Pert. #  2: Fermi energy shift (Ry) =     1.0771E-27     0.0000E+00

      iter #   6 total cpu time :   419.6 secs   av.it.:  16.0
      thresh= 2.550E-09 alpha_mix =  0.700 |ddv_scf|^2 =  1.811E-18
 
     Pert. #  1: Fermi energy shift (Ry) =    -2.1541E-27     1.4947E-44
     Pert. #  2: Fermi energy shift (Ry) =     1.0771E-27     0.0000E+00

      iter #   7 total cpu time :   430.2 secs   av.it.:  17.4
      thresh= 1.346E-10 alpha_mix =  0.700 |ddv_scf|^2 =  7.505E-20
 
     Pert. #  1: Fermi energy shift (Ry) =    -2.1541E-27     1.4947E-44
     Pert. #  2: Fermi energy shift (Ry) =     7.5394E-27     0.0000E+00

      iter #   8 total cpu time :   437.5 secs   av.it.:  17.5
      thresh= 2.739E-11 alpha_mix =  0.700 |ddv_scf|^2 =  2.942E-21
 
     Pert. #  1: Fermi energy shift (Ry) =    -4.3082E-27     1.4947E-44
     Pert. #  2: Fermi energy shift (Ry) =    -2.1541E-27     0.0000E+00

      iter #   9 total cpu time :   444.6 secs   av.it.:  17.4
      thresh= 5.424E-12 alpha_mix =  0.700 |ddv_scf|^2 =  1.487E-22

     End of self-consistent calculation

     Convergence has been achieved 
 
     Number of q in the star =    1
     List of q in the star:
          1   0.000000000   0.000000000   0.000000000

     Diagonalizing the dynamical matrix

     q = (    0.000000000   0.000000000   0.000000000 ) 

 **************************************************************************
     freq (    1) =      -0.667613 [THz] =     -22.269162 [cm-1]
     freq (    2) =      -0.667613 [THz] =     -22.269162 [cm-1]
     freq (    3) =       0.962108 [THz] =      32.092479 [cm-1]
     freq (    4) =       6.823788 [THz] =     227.617069 [cm-1]
     freq (    5) =       6.823788 [THz] =     227.617069 [cm-1]
     freq (    6) =       8.696005 [THz] =     290.067492 [cm-1]
     freq (    7) =       8.696005 [THz] =     290.067492 [cm-1]
     freq (    8) =      11.214795 [THz] =     374.085310 [cm-1]
     freq (    9) =      12.003040 [THz] =     400.378319 [cm-1]
 **************************************************************************

     Mode symmetry, D_3h (-62m) point group:

     freq (   1-   2) =        -22.3  [cm-1]   --> E'              I+R
     freq (   3-   3) =         32.1  [cm-1]   --> A''2            I  
     freq (   4-   5) =        227.6  [cm-1]   --> E''             R  
     freq (   6-   7) =        290.1  [cm-1]   --> E'              I+R
     freq (   8-   8) =        374.1  [cm-1]   --> A''2            I  
     freq (   9-   9) =        400.4  [cm-1]   --> A'_1            R  

     Calculation of q =    0.0000000   0.0962250   0.0000000

     Subspace diagonalization in iterative solution of the eigenvalue problem:
     a serial algorithm will be used

 
     Parallelization info
     --------------------
     sticks:   dense  smooth     PW     G-vecs:    dense   smooth      PW
     Min          60      31      9                 7329     2593     433
     Max          62      32     10                 7342     2605     452
     Sum        1099     559    163               132031    46753    7877
 
     Using Slab Decomposition
 

     Title: 
     TaS2                                                                       


     bravais-lattice index     =            4
     lattice parameter (alat)  =       6.3117  a.u.
     unit-cell volume          =     977.9382 (a.u.)^3
     number of atoms/cell      =            3
     number of atomic types    =            2
     number of electrons       =        17.00
     number of Kohn-Sham states=           13
     kinetic-energy cutoff     =      50.0000  Ry
     charge density cutoff     =     400.0000  Ry
     Exchange-correlation= PBE
                           (   1   4   3   4   0   0   0)

     celldm(1)=   6.311685  celldm(2)=   0.000000  celldm(3)=   4.491018
     celldm(4)=   0.000000  celldm(5)=   0.000000  celldm(6)=   0.000000

     crystal axes: (cart. coord. in units of alat)
               a(1) = (   1.000000   0.000000   0.000000 )  
               a(2) = (  -0.500000   0.866025   0.000000 )  
               a(3) = (   0.000000   0.000000   4.491018 )  

     reciprocal axes: (cart. coord. in units 2 pi/alat)
               b(1) = (  1.000000  0.577350  0.000000 )  
               b(2) = (  0.000000  1.154701  0.000000 )  
               b(3) = (  0.000000  0.000000  0.222667 )  


     PseudoPot. # 1 for Ta read from file:
     /fastscratch/tsievers/TaS2_24_ph_benchmark_images//pseudos/Ta.pbe-hgh.UPF
     MD5 check sum: 129c51a9a4223465c43ca8d238d17e53
     Pseudo is Norm-conserving, Zval =  5.0
     Generated in analytical, separable form
     Using radial grid of 1273 points,  6 beta functions with: 
                l(1) =   0
                l(2) =   0
                l(3) =   1
                l(4) =   1
                l(5) =   2
                l(6) =   2

     PseudoPot. # 2 for S  read from file:
     /fastscratch/tsievers/TaS2_24_ph_benchmark_images//pseudos/S.pbe-hgh.UPF
     MD5 check sum: 3a21e384b95a7cc84d045d3bcc0c4ba8
     Pseudo is Norm-conserving, Zval =  6.0
     Generated in analytical, separable form
     Using radial grid of 1151 points,  3 beta functions with: 
                l(1) =   0
                l(2) =   0
                l(3) =   1

     atomic species   valence    mass     pseudopotential
        Ta             5.00   180.95000     Ta( 1.00)
        S              6.00    32.06000     S ( 1.00)

     12 Sym. Ops. (no inversion) found



   Cartesian axes

     site n.     atom                  positions (alat units)
         1           S   tau(   1) = (  -0.0000000   0.5773503   0.4679048  )
         2           Ta  tau(   2) = (   0.0000000   0.0000000   0.0000000  )
         3           S   tau(   3) = (  -0.0000000   0.5773503  -0.4679048  )

     number of k points=   600  Marzari-Vanderbilt smearing, width (Ry)=  0.0060

     Number of k-points >= 100: set verbosity='high' to print them.

     Dense  grid:   132031 G-vectors     FFT dimensions: (  45,  45, 192)

     Smooth grid:    46753 G-vectors     FFT dimensions: (  30,  30, 128)

     Estimated max dynamical RAM per process >       6.81 MB

     Estimated total dynamical RAM >     122.67 MB
 ----2D----2D----2D----2D----2D----2D----2D----2D----2D----2D----2D----2D
  The code is running with the 2D cutoff
  Please refer to:
  Sohier, T., Calandra, M., & Mauri, F. (2017), 
  Density functional perturbation theory for gated two-dimensional heterostructu
 res:
  Theoretical developments and application to flexural phonons in graphene.
  Physical Review B, 96(7), 75448. https://doi.org/10.1103/PhysRevB.96.075448
 ----2D----2D----2D----2D----2D----2D----2D----2D----2D----2D----2D----2D

     The potential is recalculated from file :
     /fastscratch/tsievers/QE_TMP_DIR/_ph0/TaS2_24_ph_bench_nimages_2_n_procs_36_0.q_2/TaS2_24_ph_bench_nimages_2_n_procs_36_0.save/charge-density

     Starting wfcs are   27 atomic wfcs

     Band Structure Calculation
     Davidson diagonalization with overlap

     ethr =  5.88E-11,  avg # of iterations = 20.5

     total cpu time spent up to now is       62.9 secs

     End of band structure calculation

     Number of k-points >= 100: set verbosity='high' to print the bands.

     the Fermi energy is    -5.8804 ev

     Writing config to output data dir /fastscratch/tsievers/QE_TMP_DIR/_ph0/TaS2_24_ph_bench_nimages_2_n_procs_36_0.q_2/TaS2_24_ph_bench_nimages_2_n_procs_36_0.save/

     TaS2                                                                       

     bravais-lattice index     =            4
     lattice parameter (alat)  =       6.3117  a.u.
     unit-cell volume          =     977.9382 (a.u.)^3
     number of atoms/cell      =            3
     number of atomic types    =            2
     kinetic-energy cut-off    =      50.0000  Ry
     charge density cut-off    =     400.0000  Ry
     convergence threshold     =      1.0E-21
     beta                      =       0.7000
     number of iterations used =            4
     Exchange-correlation= PBE
                           (   1   4   3   4   0   0   0)


     celldm(1)=    6.31169  celldm(2)=    0.00000  celldm(3)=    4.49102
     celldm(4)=    0.00000  celldm(5)=    0.00000  celldm(6)=    0.00000

     crystal axes: (cart. coord. in units of alat)
               a(1) = (  1.0000  0.0000  0.0000 )  
               a(2) = ( -0.5000  0.8660  0.0000 )  
               a(3) = (  0.0000  0.0000  4.4910 )  

     reciprocal axes: (cart. coord. in units 2 pi/alat)
               b(1) = (  1.0000  0.5774  0.0000 )  
               b(2) = (  0.0000  1.1547  0.0000 )  
               b(3) = (  0.0000  0.0000  0.2227 )  


     Atoms inside the unit cell: 

     Cartesian axes

     site n.  atom      mass           positions (alat units)
        1     S   32.0600   tau(    1) = (   -0.00000    0.57735    0.46790  )
        2     Ta 180.9500   tau(    2) = (    0.00000    0.00000    0.00000  )
        3     S   32.0600   tau(    3) = (   -0.00000    0.57735   -0.46790  )

     Computing dynamical matrix for 
                    q = (   0.0000000   0.0962250   0.0000000 )
 
      4 Sym.Ops. (no q -> -q+G )


     G cutoff =  403.6370  (   7330 G-vectors)     FFT grid: ( 45, 45,192)
     G cutoff =  201.8185  (   2599 G-vectors)  smooth grid: ( 30, 30,128)

     number of k points=   600  Marzari-Vanderbilt smearing, width (Ry)=  0.0060

     PseudoPot. # 1 for Ta read from file:
     /fastscratch/tsievers/TaS2_24_ph_benchmark_images//pseudos/Ta.pbe-hgh.UPF
     MD5 check sum: 129c51a9a4223465c43ca8d238d17e53
     Pseudo is Norm-conserving, Zval =  5.0
     Generated in analytical, separable form
     Using radial grid of 1273 points,  6 beta functions with: 
                l(1) =   0
                l(2) =   0
                l(3) =   1
                l(4) =   1
                l(5) =   2
                l(6) =   2

     PseudoPot. # 2 for S  read from file:
     /fastscratch/tsievers/TaS2_24_ph_benchmark_images//pseudos/S.pbe-hgh.UPF
     MD5 check sum: 3a21e384b95a7cc84d045d3bcc0c4ba8
     Pseudo is Norm-conserving, Zval =  6.0
     Generated in analytical, separable form
     Using radial grid of 1151 points,  3 beta functions with: 
                l(1) =   0
                l(2) =   0
                l(3) =   1

     Mode symmetry, C_2v (mm2)  point group:


     Atomic displacements:
     There are    9 irreducible representations

     Representation     1      1 modes -  To be done

     Representation     2      1 modes -  To be done

     Representation     3      1 modes -  To be done

     Representation     4      1 modes -  To be done

     Representation     5      1 modes -  To be done

     Representation     6      1 modes -  To be done

     Representation     7      1 modes -  To be done

     Representation     8      1 modes -  To be done

     Representation     9      1 modes -  To be done



     Alpha used in Ewald sum =   2.8000
     PHONON       :   5m42.30s CPU   9m 6.20s WALL



     Representation #   1 mode #   1

     Self-consistent Calculation

      iter #   1 total cpu time :   560.6 secs   av.it.:   9.0
      thresh= 1.000E-02 alpha_mix =  0.700 |ddv_scf|^2 =  1.837E-02

      iter #   2 total cpu time :   577.0 secs   av.it.:  14.5
      thresh= 1.000E-02 alpha_mix =  0.700 |ddv_scf|^2 =  1.005E+02

      iter #   3 total cpu time :   596.4 secs   av.it.:  14.6
      thresh= 1.000E-02 alpha_mix =  0.700 |ddv_scf|^2 =  5.439E-03

      iter #   4 total cpu time :   609.4 secs   av.it.:  10.1
      thresh= 7.375E-03 alpha_mix =  0.700 |ddv_scf|^2 =  3.001E-05

      iter #   5 total cpu time :   624.8 secs   av.it.:  13.7
      thresh= 5.478E-04 alpha_mix =  0.700 |ddv_scf|^2 =  2.933E-06

      iter #   6 total cpu time :   636.0 secs   av.it.:  12.9
      thresh= 1.713E-04 alpha_mix =  0.700 |ddv_scf|^2 =  9.548E-04

      iter #   7 total cpu time :   648.8 secs   av.it.:   8.6
      thresh= 3.090E-03 alpha_mix =  0.700 |ddv_scf|^2 =  1.364E-06

      iter #   8 total cpu time :   669.1 secs   av.it.:  10.9
      thresh= 1.168E-04 alpha_mix =  0.700 |ddv_scf|^2 =  1.762E-07

      iter #   9 total cpu time :   679.3 secs   av.it.:  10.3
      thresh= 4.198E-05 alpha_mix =  0.700 |ddv_scf|^2 =  1.198E-09

      iter #  10 total cpu time :   705.3 secs   av.it.:  12.2
      thresh= 3.461E-06 alpha_mix =  0.700 |ddv_scf|^2 =  7.321E-09

      iter #  11 total cpu time :   713.4 secs   av.it.:   9.2
      thresh= 8.556E-06 alpha_mix =  0.700 |ddv_scf|^2 =  1.948E-10

      iter #  12 total cpu time :   727.2 secs   av.it.:  10.0
      thresh= 1.396E-06 alpha_mix =  0.700 |ddv_scf|^2 =  7.273E-11

      iter #  13 total cpu time :   745.1 secs   av.it.:  10.2
      thresh= 8.528E-07 alpha_mix =  0.700 |ddv_scf|^2 =  3.836E-11

      iter #  14 total cpu time :   760.1 secs   av.it.:  10.3
      thresh= 6.193E-07 alpha_mix =  0.700 |ddv_scf|^2 =  7.770E-12

      iter #  15 total cpu time :   771.5 secs   av.it.:   9.1
      thresh= 2.787E-07 alpha_mix =  0.700 |ddv_scf|^2 =  1.166E-13

      iter #  16 total cpu time :   784.0 secs   av.it.:   9.4
      thresh= 3.415E-08 alpha_mix =  0.700 |ddv_scf|^2 =  7.319E-15

      iter #  17 total cpu time :   795.4 secs   av.it.:  10.3
      thresh= 8.555E-09 alpha_mix =  0.700 |ddv_scf|^2 =  2.266E-15

      iter #  18 total cpu time :   802.9 secs   av.it.:   8.9
      thresh= 4.760E-09 alpha_mix =  0.700 |ddv_scf|^2 =  3.949E-16

      iter #  19 total cpu time :   813.6 secs   av.it.:  10.0
      thresh= 1.987E-09 alpha_mix =  0.700 |ddv_scf|^2 =  1.122E-17

      iter #  20 total cpu time :   835.9 secs   av.it.:  11.6
      thresh= 3.350E-10 alpha_mix =  0.700 |ddv_scf|^2 =  3.305E-17

      iter #  21 total cpu time :   849.5 secs   av.it.:   9.3
      thresh= 5.749E-10 alpha_mix =  0.700 |ddv_scf|^2 =  3.142E-19

      iter #  22 total cpu time :   867.1 secs   av.it.:  11.2
      thresh= 5.605E-11 alpha_mix =  0.700 |ddv_scf|^2 =  2.596E-19

      iter #  23 total cpu time :   882.0 secs   av.it.:   8.1
      thresh= 5.095E-11 alpha_mix =  0.700 |ddv_scf|^2 =  4.991E-20

      iter #  24 total cpu time :   909.6 secs   av.it.:   9.4
      thresh= 2.234E-11 alpha_mix =  0.700 |ddv_scf|^2 =  8.652E-21

      iter #  25 total cpu time :   922.8 secs   av.it.:   9.6
      thresh= 9.302E-12 alpha_mix =  0.700 |ddv_scf|^2 =  2.625E-22

     End of self-consistent calculation

     Convergence has been achieved 


     Representation #   2 mode #   2

     Self-consistent Calculation

      iter #   1 total cpu time :   934.4 secs   av.it.:   9.2
      thresh= 1.000E-02 alpha_mix =  0.700 |ddv_scf|^2 =  9.381E-03

      iter #   2 total cpu time :   959.2 secs   av.it.:  14.1
      thresh= 9.686E-03 alpha_mix =  0.700 |ddv_scf|^2 =  5.352E+01

      iter #   3 total cpu time :   993.7 secs   av.it.:  14.0
      thresh= 1.000E-02 alpha_mix =  0.700 |ddv_scf|^2 =  9.218E-03

      iter #   4 total cpu time :  1014.0 secs   av.it.:  11.5
      thresh= 9.601E-03 alpha_mix =  0.700 |ddv_scf|^2 =  8.493E-02

      iter #   5 total cpu time :  1031.0 secs   av.it.:  11.1
      thresh= 1.000E-02 alpha_mix =  0.700 |ddv_scf|^2 =  1.242E-03

      iter #   6 total cpu time :  1056.7 secs   av.it.:  10.9
      thresh= 3.525E-03 alpha_mix =  0.700 |ddv_scf|^2 =  2.763E-02

      iter #   7 total cpu time :  1067.0 secs   av.it.:   8.4
      thresh= 1.000E-02 alpha_mix =  0.700 |ddv_scf|^2 =  1.836E-05

      iter #   8 total cpu time :  1090.3 secs   av.it.:  11.3
      thresh= 4.285E-04 alpha_mix =  0.700 |ddv_scf|^2 =  2.385E-05

      iter #   9 total cpu time :  1106.5 secs   av.it.:   9.8
      thresh= 4.884E-04 alpha_mix =  0.700 |ddv_scf|^2 =  8.950E-07

      iter #  10 total cpu time :  1119.7 secs   av.it.:   9.0
      thresh= 9.460E-05 alpha_mix =  0.700 |ddv_scf|^2 =  8.873E-08

      iter #  11 total cpu time :  1134.4 secs   av.it.:   9.7
      thresh= 2.979E-05 alpha_mix =  0.700 |ddv_scf|^2 =  1.617E-07

      iter #  12 total cpu time :  1149.4 secs   av.it.:   9.3
      thresh= 4.021E-05 alpha_mix =  0.700 |ddv_scf|^2 =  1.001E-09

      iter #  13 total cpu time :  1161.2 secs   av.it.:  10.1
      thresh= 3.164E-06 alpha_mix =  0.700 |ddv_scf|^2 =  5.169E-10

      iter #  14 total cpu time :  1171.8 secs   av.it.:  10.0
      thresh= 2.274E-06 alpha_mix =  0.700 |ddv_scf|^2 =  5.060E-11

      iter #  15 total cpu time :  1188.5 secs   av.it.:   9.4
      thresh= 7.113E-07 alpha_mix =  0.700 |ddv_scf|^2 =  8.115E-13

      iter #  16 total cpu time :  1204.0 secs   av.it.:   9.9
      thresh= 9.008E-08 alpha_mix =  0.700 |ddv_scf|^2 =  2.985E-13

      iter #  17 total cpu time :  1217.5 secs   av.it.:   9.1
      thresh= 5.464E-08 alpha_mix =  0.700 |ddv_scf|^2 =  1.162E-14

      iter #  18 total cpu time :  1230.2 secs   av.it.:  10.1
      thresh= 1.078E-08 alpha_mix =  0.700 |ddv_scf|^2 =  1.744E-15

      iter #  19 total cpu time :  1240.1 secs   av.it.:   9.5
      thresh= 4.176E-09 alpha_mix =  0.700 |ddv_scf|^2 =  4.016E-17

      iter #  20 total cpu time :  1251.8 secs   av.it.:  10.0
      thresh= 6.337E-10 alpha_mix =  0.700 |ddv_scf|^2 =  2.809E-17

      iter #  21 total cpu time :  1267.5 secs   av.it.:   9.5
      thresh= 5.300E-10 alpha_mix =  0.700 |ddv_scf|^2 =  6.080E-19

      iter #  22 total cpu time :  1278.7 secs   av.it.:  10.1
      thresh= 7.797E-11 alpha_mix =  0.700 |ddv_scf|^2 =  7.663E-20

      iter #  23 total cpu time :  1291.1 secs   av.it.:   9.4
      thresh= 2.768E-11 alpha_mix =  0.700 |ddv_scf|^2 =  6.542E-21

      iter #  24 total cpu time :  1301.8 secs   av.it.:   8.4
      thresh= 8.088E-12 alpha_mix =  0.700 |ddv_scf|^2 =  2.534E-21

      iter #  25 total cpu time :  1313.2 secs   av.it.:   9.7
      thresh= 5.034E-12 alpha_mix =  0.700 |ddv_scf|^2 =  1.058E-22

     End of self-consistent calculation

     Convergence has been achieved 


     Representation #   3 mode #   3

     Self-consistent Calculation

      iter #   1 total cpu time :  1332.3 secs   av.it.:   8.0
      thresh= 1.000E-02 alpha_mix =  0.700 |ddv_scf|^2 =  7.683E-03

      iter #   2 total cpu time :  1352.7 secs   av.it.:  14.0
      thresh= 8.765E-03 alpha_mix =  0.700 |ddv_scf|^2 =  4.203E+01

      iter #   3 total cpu time :  1371.4 secs   av.it.:  13.9
      thresh= 1.000E-02 alpha_mix =  0.700 |ddv_scf|^2 =  2.183E-03

      iter #   4 total cpu time :  1378.5 secs   av.it.:   7.5
      thresh= 4.672E-03 alpha_mix =  0.700 |ddv_scf|^2 =  1.392E-06

      iter #   5 total cpu time :  1389.8 secs   av.it.:  11.3
      thresh= 1.180E-04 alpha_mix =  0.700 |ddv_scf|^2 =  3.243E-05

      iter #   6 total cpu time :  1399.8 secs   av.it.:   6.5
      thresh= 5.695E-04 alpha_mix =  0.700 |ddv_scf|^2 =  2.242E-06

      iter #   7 total cpu time :  1414.0 secs   av.it.:  10.0
      thresh= 1.497E-04 alpha_mix =  0.700 |ddv_scf|^2 =  1.837E-06

      iter #   8 total cpu time :  1439.9 secs   av.it.:   9.5
      thresh= 1.355E-04 alpha_mix =  0.700 |ddv_scf|^2 =  2.932E-07

      iter #   9 total cpu time :  1456.6 secs   av.it.:  10.2
      thresh= 5.415E-05 alpha_mix =  0.700 |ddv_scf|^2 =  1.119E-07

      iter #  10 total cpu time :  1465.2 secs   av.it.:   9.4
      thresh= 3.345E-05 alpha_mix =  0.700 |ddv_scf|^2 =  2.262E-09

      iter #  11 total cpu time :  1476.0 secs   av.it.:   9.2
      thresh= 4.756E-06 alpha_mix =  0.700 |ddv_scf|^2 =  2.533E-12

      iter #  12 total cpu time :  1490.5 secs   av.it.:  10.9
      thresh= 1.591E-07 alpha_mix =  0.700 |ddv_scf|^2 =  1.479E-12

      iter #  13 total cpu time :  1500.1 secs   av.it.:  10.1
      thresh= 1.216E-07 alpha_mix =  0.700 |ddv_scf|^2 =  2.291E-13

      iter #  14 total cpu time :  1510.8 secs   av.it.:   9.4
      thresh= 4.786E-08 alpha_mix =  0.700 |ddv_scf|^2 =  1.681E-13

      iter #  15 total cpu time :  1523.2 secs   av.it.:   9.8
      thresh= 4.100E-08 alpha_mix =  0.700 |ddv_scf|^2 =  1.195E-13

      iter #  16 total cpu time :  1533.7 secs   av.it.:   9.0
      thresh= 3.457E-08 alpha_mix =  0.700 |ddv_scf|^2 =  1.296E-14

      iter #  17 total cpu time :  1544.1 secs   av.it.:   9.7
      thresh= 1.139E-08 alpha_mix =  0.700 |ddv_scf|^2 =  7.652E-17

      iter #  18 total cpu time :  1553.4 secs   av.it.:  10.8
      thresh= 8.747E-10 alpha_mix =  0.700 |ddv_scf|^2 =  4.577E-17

      iter #  19 total cpu time :  1569.1 secs   av.it.:   9.3
      thresh= 6.765E-10 alpha_mix =  0.700 |ddv_scf|^2 =  8.278E-18

      iter #  20 total cpu time :  1579.1 secs   av.it.:  10.0
      thresh= 2.877E-10 alpha_mix =  0.700 |ddv_scf|^2 =  3.597E-18

      iter #  21 total cpu time :  1599.0 secs   av.it.:   9.4
      thresh= 1.896E-10 alpha_mix =  0.700 |ddv_scf|^2 =  2.165E-19

      iter #  22 total cpu time :  1607.7 secs   av.it.:   9.8
      thresh= 4.652E-11 alpha_mix =  0.700 |ddv_scf|^2 =  1.064E-20

      iter #  23 total cpu time :  1619.9 secs   av.it.:  10.0
      thresh= 1.032E-11 alpha_mix =  0.700 |ddv_scf|^2 =  1.276E-21

      iter #  24 total cpu time :  1644.5 secs   av.it.:  10.6
      thresh= 3.572E-12 alpha_mix =  0.700 |ddv_scf|^2 =  2.537E-22

     End of self-consistent calculation

     Convergence has been achieved 


     Representation #   4 mode #   4

     Self-consistent Calculation

      iter #   1 total cpu time :  1652.9 secs   av.it.:   7.9
      thresh= 1.000E-02 alpha_mix =  0.700 |ddv_scf|^2 =  5.345E-08

      iter #   2 total cpu time :  1676.8 secs   av.it.:  16.3
      thresh= 2.312E-05 alpha_mix =  0.700 |ddv_scf|^2 =  4.861E-09

      iter #   3 total cpu time :  1696.9 secs   av.it.:  16.1
      thresh= 6.972E-06 alpha_mix =  0.700 |ddv_scf|^2 =  2.193E-10

      iter #   4 total cpu time :  1727.4 secs   av.it.:  14.4
      thresh= 1.481E-06 alpha_mix =  0.700 |ddv_scf|^2 =  6.066E-14

      iter #   5 total cpu time :  1748.7 secs   av.it.:  15.7
      thresh= 2.463E-08 alpha_mix =  0.700 |ddv_scf|^2 =  2.618E-15

      iter #   6 total cpu time :  1765.2 secs   av.it.:  15.1
      thresh= 5.116E-09 alpha_mix =  0.700 |ddv_scf|^2 =  8.170E-18

      iter #   7 total cpu time :  1782.3 secs   av.it.:  16.3
      thresh= 2.858E-10 alpha_mix =  0.700 |ddv_scf|^2 =  3.326E-19

      iter #   8 total cpu time :  1804.8 secs   av.it.:  16.7
      thresh= 5.767E-11 alpha_mix =  0.700 |ddv_scf|^2 =  1.267E-20

      iter #   9 total cpu time :  1827.7 secs   av.it.:  16.5
      thresh= 1.126E-11 alpha_mix =  0.700 |ddv_scf|^2 =  6.717E-22

     End of self-consistent calculation

     Convergence has been achieved 


     Representation #   5 mode #   5

     Self-consistent Calculation

      iter #   1 total cpu time :  1837.8 secs   av.it.:   7.0
      thresh= 1.000E-02 alpha_mix =  0.700 |ddv_scf|^2 =  7.560E-09

      iter #   2 total cpu time :  1854.1 secs   av.it.:  16.4
      thresh= 8.695E-06 alpha_mix =  0.700 |ddv_scf|^2 =  5.459E-10

      iter #   3 total cpu time :  1873.3 secs   av.it.:  15.9
      thresh= 2.336E-06 alpha_mix =  0.700 |ddv_scf|^2 =  5.850E-11

      iter #   4 total cpu time :  1886.5 secs   av.it.:  15.8
      thresh= 7.649E-07 alpha_mix =  0.700 |ddv_scf|^2 =  9.546E-13

      iter #   5 total cpu time :  1907.7 secs   av.it.:  16.2
      thresh= 9.770E-08 alpha_mix =  0.700 |ddv_scf|^2 =  2.140E-14

      iter #   6 total cpu time :  1929.7 secs   av.it.:  16.4
      thresh= 1.463E-08 alpha_mix =  0.700 |ddv_scf|^2 =  9.846E-17

      iter #   7 total cpu time :  1951.9 secs   av.it.:  16.5
      thresh= 9.923E-10 alpha_mix =  0.700 |ddv_scf|^2 =  2.478E-18

      iter #   8 total cpu time :  1965.8 secs   av.it.:  15.6
      thresh= 1.574E-10 alpha_mix =  0.700 |ddv_scf|^2 =  3.267E-20

      iter #   9 total cpu time :  1993.7 secs   av.it.:  15.7
      thresh= 1.808E-11 alpha_mix =  0.700 |ddv_scf|^2 =  3.626E-22

     End of self-consistent calculation

     Convergence has been achieved 


     Representation #   6 mode #   6

     Self-consistent Calculation

      iter #   1 total cpu time :  2011.8 secs   av.it.:   7.9
      thresh= 1.000E-02 alpha_mix =  0.700 |ddv_scf|^2 =  6.386E-08

      iter #   2 total cpu time :  2023.9 secs   av.it.:  16.5
      thresh= 2.527E-05 alpha_mix =  0.700 |ddv_scf|^2 =  7.047E-09

      iter #   3 total cpu time :  2051.7 secs   av.it.:  16.2
      thresh= 8.395E-06 alpha_mix =  0.700 |ddv_scf|^2 =  2.385E-10

      iter #   4 total cpu time :  2096.1 secs   av.it.:  14.5
      thresh= 1.544E-06 alpha_mix =  0.700 |ddv_scf|^2 =  9.804E-14

      iter #   5 total cpu time :  2111.1 secs   av.it.:  15.8
      thresh= 3.131E-08 alpha_mix =  0.700 |ddv_scf|^2 =  8.414E-15

      iter #   6 total cpu time :  2159.2 secs   av.it.:  16.2
      thresh= 9.173E-09 alpha_mix =  0.700 |ddv_scf|^2 =  1.014E-16

      iter #   7 total cpu time :  2171.5 secs   av.it.:  16.4
      thresh= 1.007E-09 alpha_mix =  0.700 |ddv_scf|^2 =  4.343E-18

      iter #   8 total cpu time :  2184.4 secs   av.it.:  16.5
      thresh= 2.084E-10 alpha_mix =  0.700 |ddv_scf|^2 =  3.721E-20

      iter #   9 total cpu time :  2201.3 secs   av.it.:  16.6
      thresh= 1.929E-11 alpha_mix =  0.700 |ddv_scf|^2 =  2.763E-21

      iter #  10 total cpu time :  2216.4 secs   av.it.:  16.4
      thresh= 5.257E-12 alpha_mix =  0.700 |ddv_scf|^2 =  7.102E-23

     End of self-consistent calculation

     Convergence has been achieved 


     Representation #   7 mode #   7

     Self-consistent Calculation

      iter #   1 total cpu time :  2254.0 secs   av.it.:   8.3
      thresh= 1.000E-02 alpha_mix =  0.700 |ddv_scf|^2 =  7.082E-06

      iter #   2 total cpu time :  2271.7 secs   av.it.:  15.2
      thresh= 2.661E-04 alpha_mix =  0.700 |ddv_scf|^2 =  1.297E-04

      iter #   3 total cpu time :  2281.4 secs   av.it.:  12.6
      thresh= 1.139E-03 alpha_mix =  0.700 |ddv_scf|^2 =  7.079E-08

      iter #   4 total cpu time :  2309.5 secs   av.it.:  14.6
      thresh= 2.661E-05 alpha_mix =  0.700 |ddv_scf|^2 =  5.296E-09

      iter #   5 total cpu time :  2320.1 secs   av.it.:  13.9
      thresh= 7.277E-06 alpha_mix =  0.700 |ddv_scf|^2 =  9.480E-11

      iter #   6 total cpu time :  2332.0 secs   av.it.:  14.4
      thresh= 9.737E-07 alpha_mix =  0.700 |ddv_scf|^2 =  3.009E-12

      iter #   7 total cpu time :  2350.2 secs   av.it.:  15.3
      thresh= 1.735E-07 alpha_mix =  0.700 |ddv_scf|^2 =  5.735E-12

      iter #   8 total cpu time :  2373.2 secs   av.it.:  13.7
      thresh= 2.395E-07 alpha_mix =  0.700 |ddv_scf|^2 =  1.400E-12

      iter #   9 total cpu time :  2397.3 secs   av.it.:  13.8
      thresh= 1.183E-07 alpha_mix =  0.700 |ddv_scf|^2 =  2.830E-14

      iter #  10 total cpu time :  2439.3 secs   av.it.:  14.9
      thresh= 1.682E-08 alpha_mix =  0.700 |ddv_scf|^2 =  1.753E-14

      iter #  11 total cpu time :  2449.7 secs   av.it.:  13.3
      thresh= 1.324E-08 alpha_mix =  0.700 |ddv_scf|^2 =  1.363E-16

      iter #  12 total cpu time :  2461.9 secs   av.it.:  15.3
      thresh= 1.167E-09 alpha_mix =  0.700 |ddv_scf|^2 =  4.689E-17

      iter #  13 total cpu time :  2481.8 secs   av.it.:  14.2
      thresh= 6.847E-10 alpha_mix =  0.700 |ddv_scf|^2 =  9.417E-19

      iter #  14 total cpu time :  2494.3 secs   av.it.:  14.4
      thresh= 9.704E-11 alpha_mix =  0.700 |ddv_scf|^2 =  2.329E-20

      iter #  15 total cpu time :  2515.6 secs   av.it.:  14.7
      thresh= 1.526E-11 alpha_mix =  0.700 |ddv_scf|^2 =  2.544E-21

      iter #  16 total cpu time :  2558.7 secs   av.it.:  14.1
      thresh= 5.044E-12 alpha_mix =  0.700 |ddv_scf|^2 =  8.451E-23

     End of self-consistent calculation

     Convergence has been achieved 


     Representation #   8 mode #   8

     Self-consistent Calculation

      iter #   1 total cpu time :  2572.6 secs   av.it.:   8.3
      thresh= 1.000E-02 alpha_mix =  0.700 |ddv_scf|^2 =  2.242E-05

      iter #   2 total cpu time :  2584.0 secs   av.it.:  15.2
      thresh= 4.735E-04 alpha_mix =  0.700 |ddv_scf|^2 =  4.432E-04

      iter #   3 total cpu time :  2617.9 secs   av.it.:  12.5
      thresh= 2.105E-03 alpha_mix =  0.700 |ddv_scf|^2 =  7.343E-09

      iter #   4 total cpu time :  2636.1 secs   av.it.:  15.8
      thresh= 8.569E-06 alpha_mix =  0.700 |ddv_scf|^2 =  7.414E-09

      iter #   5 total cpu time :  2672.3 secs   av.it.:  13.9
      thresh= 8.611E-06 alpha_mix =  0.700 |ddv_scf|^2 =  2.243E-10

      iter #   6 total cpu time :  2682.6 secs   av.it.:  13.7
      thresh= 1.498E-06 alpha_mix =  0.700 |ddv_scf|^2 =  3.988E-11

      iter #   7 total cpu time :  2726.0 secs   av.it.:  12.5
      thresh= 6.315E-07 alpha_mix =  0.700 |ddv_scf|^2 =  1.866E-11

      iter #   8 total cpu time :  2739.8 secs   av.it.:  13.2
      thresh= 4.320E-07 alpha_mix =  0.700 |ddv_scf|^2 =  2.227E-14

      iter #   9 total cpu time :  2754.1 secs   av.it.:  15.2
      thresh= 1.492E-08 alpha_mix =  0.700 |ddv_scf|^2 =  1.662E-15

      iter #  10 total cpu time :  2805.3 secs   av.it.:  15.3
      thresh= 4.077E-09 alpha_mix =  0.700 |ddv_scf|^2 =  3.418E-16

      iter #  11 total cpu time :  2816.0 secs   av.it.:  14.4
      thresh= 1.849E-09 alpha_mix =  0.700 |ddv_scf|^2 =  1.448E-17

      iter #  12 total cpu time :  2861.3 secs   av.it.:  13.7
      thresh= 3.805E-10 alpha_mix =  0.700 |ddv_scf|^2 =  4.149E-19

      iter #  13 total cpu time :  2872.9 secs   av.it.:  14.4
      thresh= 6.441E-11 alpha_mix =  0.700 |ddv_scf|^2 =  4.231E-19

      iter #  14 total cpu time :  2883.0 secs   av.it.:  13.4
      thresh= 6.504E-11 alpha_mix =  0.700 |ddv_scf|^2 =  5.514E-20

      iter #  15 total cpu time :  2939.6 secs   av.it.:  14.0
      thresh= 2.348E-11 alpha_mix =  0.700 |ddv_scf|^2 =  1.083E-21

      iter #  16 total cpu time :  2950.0 secs   av.it.:  14.3
      thresh= 3.291E-12 alpha_mix =  0.700 |ddv_scf|^2 =  6.354E-23

     End of self-consistent calculation

     Convergence has been achieved 


     Representation #   9 mode #   9

     Self-consistent Calculation

      iter #   1 total cpu time :  2994.3 secs   av.it.:   8.7
      thresh= 1.000E-02 alpha_mix =  0.700 |ddv_scf|^2 =  3.001E-05

      iter #   2 total cpu time :  3009.0 secs   av.it.:  15.1
      thresh= 5.478E-04 alpha_mix =  0.700 |ddv_scf|^2 =  5.185E-04

      iter #   3 total cpu time :  3019.1 secs   av.it.:  12.6
      thresh= 2.277E-03 alpha_mix =  0.700 |ddv_scf|^2 =  1.061E-06

      iter #   4 total cpu time :  3032.0 secs   av.it.:  13.7
      thresh= 1.030E-04 alpha_mix =  0.700 |ddv_scf|^2 =  2.195E-08

      iter #   5 total cpu time :  3057.3 secs   av.it.:  13.7
      thresh= 1.482E-05 alpha_mix =  0.700 |ddv_scf|^2 =  6.278E-11

      iter #   6 total cpu time :  3071.8 secs   av.it.:  14.2
      thresh= 7.924E-07 alpha_mix =  0.700 |ddv_scf|^2 =  2.481E-11

      iter #   7 total cpu time :  3092.0 secs   av.it.:  12.8
      thresh= 4.981E-07 alpha_mix =  0.700 |ddv_scf|^2 =  2.053E-12

      iter #   8 total cpu time :  3117.7 secs   av.it.:  14.4
      thresh= 1.433E-07 alpha_mix =  0.700 |ddv_scf|^2 =  4.294E-13

      iter #   9 total cpu time :  3129.9 secs   av.it.:  14.2
      thresh= 6.553E-08 alpha_mix =  0.700 |ddv_scf|^2 =  1.597E-14

      iter #  10 total cpu time :  3156.8 secs   av.it.:  13.5
      thresh= 1.264E-08 alpha_mix =  0.700 |ddv_scf|^2 =  5.043E-16

      iter #  11 total cpu time :  3171.6 secs   av.it.:  13.4
      thresh= 2.246E-09 alpha_mix =  0.700 |ddv_scf|^2 =  1.710E-18

      iter #  12 total cpu time :  3188.7 secs   av.it.:  15.3
      thresh= 1.308E-10 alpha_mix =  0.700 |ddv_scf|^2 =  5.124E-19

      iter #  13 total cpu time :  3223.4 secs   av.it.:  14.0
      thresh= 7.158E-11 alpha_mix =  0.700 |ddv_scf|^2 =  6.093E-20

      iter #  14 total cpu time :  3239.3 secs   av.it.:  14.7
      thresh= 2.468E-11 alpha_mix =  0.700 |ddv_scf|^2 =  1.962E-20

      iter #  15 total cpu time :  3250.1 secs   av.it.:  14.4
      thresh= 1.401E-11 alpha_mix =  0.700 |ddv_scf|^2 =  1.176E-21

      iter #  16 total cpu time :  3280.2 secs   av.it.:  15.1
      thresh= 3.430E-12 alpha_mix =  0.700 |ddv_scf|^2 =  3.147E-22

     End of self-consistent calculation

     Convergence has been achieved 
 
     Number of q in the star =    3
     List of q in the star:
          1   0.000000000   0.096225045   0.000000000
          2   0.083333333  -0.048112522   0.000000000
          3  -0.083333333  -0.048112522   0.000000000
     In addition there is the -q list: 
          1   0.000000000  -0.096225045   0.000000000
          2  -0.083333333   0.048112522   0.000000000
          3   0.083333333   0.048112522   0.000000000

     Diagonalizing the dynamical matrix

     q = (    0.000000000   0.096225045   0.000000000 ) 

 **************************************************************************
     freq (    1) =       0.499912 [THz] =      16.675257 [cm-1]
     freq (    2) =       0.892398 [THz] =      29.767205 [cm-1]
     freq (    3) =       1.335124 [THz] =      44.534927 [cm-1]
     freq (    4) =       6.966379 [THz] =     232.373389 [cm-1]
     freq (    5) =       7.081743 [THz] =     236.221515 [cm-1]
     freq (    6) =       8.320909 [THz] =     277.555641 [cm-1]
     freq (    7) =       8.569192 [THz] =     285.837487 [cm-1]
     freq (    8) =      11.084451 [THz] =     369.737476 [cm-1]
     freq (    9) =      11.944038 [THz] =     398.410214 [cm-1]
 **************************************************************************

     Mode symmetry, C_2v (mm2)  point group:

     freq (   1-   1) =         16.7  [cm-1]   --> B_1  D_3  S_3      
     freq (   2-   2) =         29.8  [cm-1]   --> B_2  D_4  S_4      
     freq (   3-   3) =         44.5  [cm-1]   --> A_1  D_1  S_1      
     freq (   4-   4) =        232.4  [cm-1]   --> A_2  D_2  S_2      
     freq (   5-   5) =        236.2  [cm-1]   --> B_2  D_4  S_4      
     freq (   6-   6) =        277.6  [cm-1]   --> B_1  D_3  S_3      
     freq (   7-   7) =        285.8  [cm-1]   --> A_1  D_1  S_1      
     freq (   8-   8) =        369.7  [cm-1]   --> B_2  D_4  S_4      
     freq (   9-   9) =        398.4  [cm-1]   --> A_1  D_1  S_1      

     Calculation of q =    0.0000000   0.1924501   0.0000000
 
     Parallelization info
     --------------------
     sticks:   dense  smooth     PW     G-vecs:    dense   smooth      PW
     Min          60      31      9                 7329     2593     443
     Max          62      32     10                 7342     2605     464
     Sum        1099     559    163               132031    46753    8057
 
     Using Slab Decomposition
 

     Title: 
     TaS2                                                                       


     bravais-lattice index     =            4
     lattice parameter (alat)  =       6.3117  a.u.
     unit-cell volume          =     977.9382 (a.u.)^3
     number of atoms/cell      =            3
     number of atomic types    =            2
     number of electrons       =        17.00
     number of Kohn-Sham states=           13
     kinetic-energy cutoff     =      50.0000  Ry
     charge density cutoff     =     400.0000  Ry
     Exchange-correlation= PBE
                           (   1   4   3   4   0   0   0)

     celldm(1)=   6.311685  celldm(2)=   0.000000  celldm(3)=   4.491018
     celldm(4)=   0.000000  celldm(5)=   0.000000  celldm(6)=   0.000000

     crystal axes: (cart. coord. in units of alat)
               a(1) = (   1.000000   0.000000   0.000000 )  
               a(2) = (  -0.500000   0.866025   0.000000 )  
               a(3) = (   0.000000   0.000000   4.491018 )  

     reciprocal axes: (cart. coord. in units 2 pi/alat)
               b(1) = (  1.000000  0.577350  0.000000 )  
               b(2) = (  0.000000  1.154701  0.000000 )  
               b(3) = (  0.000000  0.000000  0.222667 )  


     PseudoPot. # 1 for Ta read from file:
     /fastscratch/tsievers/TaS2_24_ph_benchmark_images//pseudos/Ta.pbe-hgh.UPF
     MD5 check sum: 129c51a9a4223465c43ca8d238d17e53
     Pseudo is Norm-conserving, Zval =  5.0
     Generated in analytical, separable form
     Using radial grid of 1273 points,  6 beta functions with: 
                l(1) =   0
                l(2) =   0
                l(3) =   1
                l(4) =   1
                l(5) =   2
                l(6) =   2

     PseudoPot. # 2 for S  read from file:
     /fastscratch/tsievers/TaS2_24_ph_benchmark_images//pseudos/S.pbe-hgh.UPF
     MD5 check sum: 3a21e384b95a7cc84d045d3bcc0c4ba8
     Pseudo is Norm-conserving, Zval =  6.0
     Generated in analytical, separable form
     Using radial grid of 1151 points,  3 beta functions with: 
                l(1) =   0
                l(2) =   0
                l(3) =   1

     atomic species   valence    mass     pseudopotential
        Ta             5.00   180.95000     Ta( 1.00)
        S              6.00    32.06000     S ( 1.00)

     12 Sym. Ops. (no inversion) found



   Cartesian axes

     site n.     atom                  positions (alat units)
         1           S   tau(   1) = (  -0.0000000   0.5773503   0.4679048  )
         2           Ta  tau(   2) = (   0.0000000   0.0000000   0.0000000  )
         3           S   tau(   3) = (  -0.0000000   0.5773503  -0.4679048  )

     number of k points=   600  Marzari-Vanderbilt smearing, width (Ry)=  0.0060

     Number of k-points >= 100: set verbosity='high' to print them.

     Dense  grid:   132031 G-vectors     FFT dimensions: (  45,  45, 192)

     Smooth grid:    46753 G-vectors     FFT dimensions: (  30,  30, 128)

     Estimated max dynamical RAM per process >       6.83 MB

     Estimated total dynamical RAM >     122.94 MB
 ----2D----2D----2D----2D----2D----2D----2D----2D----2D----2D----2D----2D
  The code is running with the 2D cutoff
  Please refer to:
  Sohier, T., Calandra, M., & Mauri, F. (2017), 
  Density functional perturbation theory for gated two-dimensional heterostructu
 res:
  Theoretical developments and application to flexural phonons in graphene.
  Physical Review B, 96(7), 75448. https://doi.org/10.1103/PhysRevB.96.075448
 ----2D----2D----2D----2D----2D----2D----2D----2D----2D----2D----2D----2D

     The potential is recalculated from file :
     /fastscratch/tsievers/QE_TMP_DIR/_ph0/TaS2_24_ph_bench_nimages_2_n_procs_36_0.q_3/TaS2_24_ph_bench_nimages_2_n_procs_36_0.save/charge-density

     Starting wfcs are   27 atomic wfcs

     Band Structure Calculation
     Davidson diagonalization with overlap

     ethr =  5.88E-11,  avg # of iterations = 20.5

     total cpu time spent up to now is      133.8 secs

     End of band structure calculation

     Number of k-points >= 100: set verbosity='high' to print the bands.

     the Fermi energy is    -5.8804 ev

     Writing config to output data dir /fastscratch/tsievers/QE_TMP_DIR/_ph0/TaS2_24_ph_bench_nimages_2_n_procs_36_0.q_3/TaS2_24_ph_bench_nimages_2_n_procs_36_0.save/

     TaS2                                                                       

     bravais-lattice index     =            4
     lattice parameter (alat)  =       6.3117  a.u.
     unit-cell volume          =     977.9382 (a.u.)^3
     number of atoms/cell      =            3
     number of atomic types    =            2
     kinetic-energy cut-off    =      50.0000  Ry
     charge density cut-off    =     400.0000  Ry
     convergence threshold     =      1.0E-21
     beta                      =       0.7000
     number of iterations used =            4
     Exchange-correlation= PBE
                           (   1   4   3   4   0   0   0)


     celldm(1)=    6.31169  celldm(2)=    0.00000  celldm(3)=    4.49102
     celldm(4)=    0.00000  celldm(5)=    0.00000  celldm(6)=    0.00000

     crystal axes: (cart. coord. in units of alat)
               a(1) = (  1.0000  0.0000  0.0000 )  
               a(2) = ( -0.5000  0.8660  0.0000 )  
               a(3) = (  0.0000  0.0000  4.4910 )  

     reciprocal axes: (cart. coord. in units 2 pi/alat)
               b(1) = (  1.0000  0.5774  0.0000 )  
               b(2) = (  0.0000  1.1547  0.0000 )  
               b(3) = (  0.0000  0.0000  0.2227 )  


     Atoms inside the unit cell: 

     Cartesian axes

     site n.  atom      mass           positions (alat units)
        1     S   32.0600   tau(    1) = (   -0.00000    0.57735    0.46790  )
        2     Ta 180.9500   tau(    2) = (    0.00000    0.00000    0.00000  )
        3     S   32.0600   tau(    3) = (   -0.00000    0.57735   -0.46790  )

     Computing dynamical matrix for 
                    q = (   0.0000000   0.1924501   0.0000000 )
 
      4 Sym.Ops. (no q -> -q+G )


     G cutoff =  403.6370  (   7330 G-vectors)     FFT grid: ( 45, 45,192)
     G cutoff =  201.8185  (   2599 G-vectors)  smooth grid: ( 30, 30,128)

     number of k points=   600  Marzari-Vanderbilt smearing, width (Ry)=  0.0060

     PseudoPot. # 1 for Ta read from file:
     /fastscratch/tsievers/TaS2_24_ph_benchmark_images//pseudos/Ta.pbe-hgh.UPF
     MD5 check sum: 129c51a9a4223465c43ca8d238d17e53
     Pseudo is Norm-conserving, Zval =  5.0
     Generated in analytical, separable form
     Using radial grid of 1273 points,  6 beta functions with: 
                l(1) =   0
                l(2) =   0
                l(3) =   1
                l(4) =   1
                l(5) =   2
                l(6) =   2

     PseudoPot. # 2 for S  read from file:
     /fastscratch/tsievers/TaS2_24_ph_benchmark_images//pseudos/S.pbe-hgh.UPF
     MD5 check sum: 3a21e384b95a7cc84d045d3bcc0c4ba8
     Pseudo is Norm-conserving, Zval =  6.0
     Generated in analytical, separable form
     Using radial grid of 1151 points,  3 beta functions with: 
                l(1) =   0
                l(2) =   0
                l(3) =   1

     Mode symmetry, C_2v (mm2)  point group:


     Atomic displacements:
     There are    9 irreducible representations

     Representation     1      1 modes -  To be done

     Representation     2      1 modes -  To be done

     Representation     3      1 modes -  To be done

     Representation     4      1 modes -  To be done

     Representation     5      1 modes -  To be done

     Representation     6      1 modes -  To be done

     Representation     7      1 modes -  To be done

     Representation     8      1 modes -  To be done

     Representation     9      1 modes -  To be done



     Alpha used in Ewald sum =   2.8000
     PHONON       :  41m35.37s CPU  55m41.54s WALL



     Representation #   1 mode #   1

     Self-consistent Calculation

      iter #   1 total cpu time :  3350.3 secs   av.it.:   9.1
      thresh= 1.000E-02 alpha_mix =  0.700 |ddv_scf|^2 =  1.348E-03

      iter #   2 total cpu time :  3372.0 secs   av.it.:  15.4
      thresh= 3.671E-03 alpha_mix =  0.700 |ddv_scf|^2 =  1.292E+00

      iter #   3 total cpu time :  3390.1 secs   av.it.:  13.8
      thresh= 1.000E-02 alpha_mix =  0.700 |ddv_scf|^2 =  6.670E-05

      iter #   4 total cpu time :  3402.7 secs   av.it.:  13.3
      thresh= 8.167E-04 alpha_mix =  0.700 |ddv_scf|^2 =  5.211E-05

      iter #   5 total cpu time :  3427.9 secs   av.it.:  12.6
      thresh= 7.219E-04 alpha_mix =  0.700 |ddv_scf|^2 =  1.018E-07

      iter #   6 total cpu time :  3446.1 secs   av.it.:  14.0
      thresh= 3.190E-05 alpha_mix =  0.700 |ddv_scf|^2 =  5.682E-06

      iter #   7 total cpu time :  3459.4 secs   av.it.:  10.9
      thresh= 2.384E-04 alpha_mix =  0.700 |ddv_scf|^2 =  2.766E-08

      iter #   8 total cpu time :  3470.0 secs   av.it.:  13.2
      thresh= 1.663E-05 alpha_mix =  0.700 |ddv_scf|^2 =  1.354E-09

      iter #   9 total cpu time :  3497.7 secs   av.it.:  12.8
      thresh= 3.680E-06 alpha_mix =  0.700 |ddv_scf|^2 =  3.837E-11

      iter #  10 total cpu time :  3516.0 secs   av.it.:  12.7
      thresh= 6.195E-07 alpha_mix =  0.700 |ddv_scf|^2 =  1.834E-11

      iter #  11 total cpu time :  3530.0 secs   av.it.:  12.3
      thresh= 4.282E-07 alpha_mix =  0.700 |ddv_scf|^2 =  1.346E-11

      iter #  12 total cpu time :  3561.7 secs   av.it.:  11.9
      thresh= 3.669E-07 alpha_mix =  0.700 |ddv_scf|^2 =  6.395E-14

      iter #  13 total cpu time :  3583.2 secs   av.it.:  13.4
      thresh= 2.529E-08 alpha_mix =  0.700 |ddv_scf|^2 =  1.470E-14

      iter #  14 total cpu time :  3599.3 secs   av.it.:  12.1
      thresh= 1.213E-08 alpha_mix =  0.700 |ddv_scf|^2 =  1.924E-15

      iter #  15 total cpu time :  3638.1 secs   av.it.:  12.8
      thresh= 4.387E-09 alpha_mix =  0.700 |ddv_scf|^2 =  1.877E-15

      iter #  16 total cpu time :  3666.1 secs   av.it.:  11.2
      thresh= 4.332E-09 alpha_mix =  0.700 |ddv_scf|^2 =  1.673E-16

      iter #  17 total cpu time :  3683.3 secs   av.it.:  11.6
      thresh= 1.293E-09 alpha_mix =  0.700 |ddv_scf|^2 =  1.912E-17

      iter #  18 total cpu time :  3701.1 secs   av.it.:  11.5
      thresh= 4.373E-10 alpha_mix =  0.700 |ddv_scf|^2 =  4.008E-19

      iter #  19 total cpu time :  3731.1 secs   av.it.:  13.2
      thresh= 6.331E-11 alpha_mix =  0.700 |ddv_scf|^2 =  1.207E-19

      iter #  20 total cpu time :  3749.7 secs   av.it.:  12.9
      thresh= 3.474E-11 alpha_mix =  0.700 |ddv_scf|^2 =  7.761E-20

      iter #  21 total cpu time :  3761.5 secs   av.it.:  11.5
      thresh= 2.786E-11 alpha_mix =  0.700 |ddv_scf|^2 =  1.584E-21

      iter #  22 total cpu time :  3781.3 secs   av.it.:  13.3
      thresh= 3.980E-12 alpha_mix =  0.700 |ddv_scf|^2 =  1.272E-21

      iter #  23 total cpu time :  3791.7 secs   av.it.:  11.6
      thresh= 3.567E-12 alpha_mix =  0.700 |ddv_scf|^2 =  2.188E-22

     End of self-consistent calculation

     Convergence has been achieved 


     Representation #   2 mode #   2

     Self-consistent Calculation

      iter #   1 total cpu time :  3805.6 secs   av.it.:   9.1
      thresh= 1.000E-02 alpha_mix =  0.700 |ddv_scf|^2 =  6.146E-04

      iter #   2 total cpu time :  3825.8 secs   av.it.:  15.6
      thresh= 2.479E-03 alpha_mix =  0.700 |ddv_scf|^2 =  6.290E-01

      iter #   3 total cpu time :  3848.3 secs   av.it.:  13.2
      thresh= 1.000E-02 alpha_mix =  0.700 |ddv_scf|^2 =  3.644E-04

      iter #   4 total cpu time :  3871.6 secs   av.it.:  13.2
      thresh= 1.909E-03 alpha_mix =  0.700 |ddv_scf|^2 =  1.030E-03

      iter #   5 total cpu time :  3888.0 secs   av.it.:  11.6
      thresh= 3.209E-03 alpha_mix =  0.700 |ddv_scf|^2 =  1.366E-06

      iter #   6 total cpu time :  3901.7 secs   av.it.:  13.9
      thresh= 1.169E-04 alpha_mix =  0.700 |ddv_scf|^2 =  5.199E-05

      iter #   7 total cpu time :  3924.5 secs   av.it.:   9.8
      thresh= 7.210E-04 alpha_mix =  0.700 |ddv_scf|^2 =  1.932E-07

      iter #   8 total cpu time :  3939.1 secs   av.it.:  13.2
      thresh= 4.395E-05 alpha_mix =  0.700 |ddv_scf|^2 =  6.425E-08

      iter #   9 total cpu time :  3955.7 secs   av.it.:  12.2
      thresh= 2.535E-05 alpha_mix =  0.700 |ddv_scf|^2 =  2.435E-10

      iter #  10 total cpu time :  3969.6 secs   av.it.:  11.1
      thresh= 1.561E-06 alpha_mix =  0.700 |ddv_scf|^2 =  3.312E-11

      iter #  11 total cpu time :  3985.7 secs   av.it.:  12.8
      thresh= 5.755E-07 alpha_mix =  0.700 |ddv_scf|^2 =  1.739E-11

      iter #  12 total cpu time :  3996.5 secs   av.it.:  11.6
      thresh= 4.171E-07 alpha_mix =  0.700 |ddv_scf|^2 =  1.061E-12

      iter #  13 total cpu time :  4018.6 secs   av.it.:  12.2
      thresh= 1.030E-07 alpha_mix =  0.700 |ddv_scf|^2 =  1.600E-13

      iter #  14 total cpu time :  4034.8 secs   av.it.:  12.0
      thresh= 4.000E-08 alpha_mix =  0.700 |ddv_scf|^2 =  2.087E-14

      iter #  15 total cpu time :  4049.3 secs   av.it.:  12.2
      thresh= 1.445E-08 alpha_mix =  0.700 |ddv_scf|^2 =  9.385E-16

      iter #  16 total cpu time :  4064.4 secs   av.it.:  12.5
      thresh= 3.063E-09 alpha_mix =  0.700 |ddv_scf|^2 =  2.249E-16

      iter #  17 total cpu time :  4075.6 secs   av.it.:  11.6
      thresh= 1.500E-09 alpha_mix =  0.700 |ddv_scf|^2 =  6.673E-18

      iter #  18 total cpu time :  4085.8 secs   av.it.:  11.5
      thresh= 2.583E-10 alpha_mix =  0.700 |ddv_scf|^2 =  1.332E-18

      iter #  19 total cpu time :  4098.2 secs   av.it.:  11.7
      thresh= 1.154E-10 alpha_mix =  0.700 |ddv_scf|^2 =  1.926E-20

      iter #  20 total cpu time :  4121.7 secs   av.it.:  13.5
      thresh= 1.388E-11 alpha_mix =  0.700 |ddv_scf|^2 =  1.345E-20

      iter #  21 total cpu time :  4133.8 secs   av.it.:  13.2
      thresh= 1.160E-11 alpha_mix =  0.700 |ddv_scf|^2 =  6.980E-21

      iter #  22 total cpu time :  4147.4 secs   av.it.:  10.7
      thresh= 8.355E-12 alpha_mix =  0.700 |ddv_scf|^2 =  1.349E-21

      iter #  23 total cpu time :  4158.5 secs   av.it.:  12.2
      thresh= 3.673E-12 alpha_mix =  0.700 |ddv_scf|^2 =  1.618E-23

     End of self-consistent calculation

     Convergence has been achieved 


     Representation #   3 mode #   3

     Self-consistent Calculation

      iter #   1 total cpu time :  4177.2 secs   av.it.:   8.4
      thresh= 1.000E-02 alpha_mix =  0.700 |ddv_scf|^2 =  6.535E-04

      iter #   2 total cpu time :  4197.7 secs   av.it.:  15.4
      thresh= 2.556E-03 alpha_mix =  0.700 |ddv_scf|^2 =  6.313E-01

      iter #   3 total cpu time :  4215.7 secs   av.it.:  13.2
      thresh= 1.000E-02 alpha_mix =  0.700 |ddv_scf|^2 =  9.535E-06

      iter #   4 total cpu time :  4236.5 secs   av.it.:  12.0
      thresh= 3.088E-04 alpha_mix =  0.700 |ddv_scf|^2 =  9.245E-07

      iter #   5 total cpu time :  4260.7 secs   av.it.:  12.3
      thresh= 9.615E-05 alpha_mix =  0.700 |ddv_scf|^2 =  3.968E-07

      iter #   6 total cpu time :  4270.9 secs   av.it.:   9.9
      thresh= 6.299E-05 alpha_mix =  0.700 |ddv_scf|^2 =  2.538E-07

      iter #   7 total cpu time :  4286.6 secs   av.it.:  11.4
      thresh= 5.038E-05 alpha_mix =  0.700 |ddv_scf|^2 =  1.096E-09

      iter #   8 total cpu time :  4311.3 secs   av.it.:  13.6
      thresh= 3.311E-06 alpha_mix =  0.700 |ddv_scf|^2 =  2.303E-10

      iter #   9 total cpu time :  4332.4 secs   av.it.:  12.5
      thresh= 1.517E-06 alpha_mix =  0.700 |ddv_scf|^2 =  3.091E-11

      iter #  10 total cpu time :  4358.3 secs   av.it.:  12.3
      thresh= 5.560E-07 alpha_mix =  0.700 |ddv_scf|^2 =  1.179E-12

      iter #  11 total cpu time :  4376.9 secs   av.it.:  12.4
      thresh= 1.086E-07 alpha_mix =  0.700 |ddv_scf|^2 =  7.174E-13

      iter #  12 total cpu time :  4404.4 secs   av.it.:  11.5
      thresh= 8.470E-08 alpha_mix =  0.700 |ddv_scf|^2 =  4.944E-16

      iter #  13 total cpu time :  4428.1 secs   av.it.:  14.9
      thresh= 2.223E-09 alpha_mix =  0.700 |ddv_scf|^2 =  1.229E-15

      iter #  14 total cpu time :  4447.5 secs   av.it.:  12.9
      thresh= 3.505E-09 alpha_mix =  0.700 |ddv_scf|^2 =  2.960E-17

      iter #  15 total cpu time :  4474.6 secs   av.it.:  13.4
      thresh= 5.441E-10 alpha_mix =  0.700 |ddv_scf|^2 =  1.474E-17

      iter #  16 total cpu time :  4498.4 secs   av.it.:  11.6
      thresh= 3.840E-10 alpha_mix =  0.700 |ddv_scf|^2 =  3.444E-18

      iter #  17 total cpu time :  4514.7 secs   av.it.:  10.5
      thresh= 1.856E-10 alpha_mix =  0.700 |ddv_scf|^2 =  1.611E-18

      iter #  18 total cpu time :  4556.4 secs   av.it.:  12.2
      thresh= 1.269E-10 alpha_mix =  0.700 |ddv_scf|^2 =  2.931E-19

      iter #  19 total cpu time :  4574.6 secs   av.it.:  12.1
      thresh= 5.413E-11 alpha_mix =  0.700 |ddv_scf|^2 =  1.297E-20

      iter #  20 total cpu time :  4601.7 secs   av.it.:  12.3
      thresh= 1.139E-11 alpha_mix =  0.700 |ddv_scf|^2 =  4.637E-22

     End of self-consistent calculation

     Convergence has been achieved 


     Representation #   4 mode #   4

     Self-consistent Calculation

      iter #   1 total cpu time :  4645.4 secs   av.it.:   7.9
      thresh= 1.000E-02 alpha_mix =  0.700 |ddv_scf|^2 =  5.806E-08

      iter #   2 total cpu time :  4663.9 secs   av.it.:  16.3
      thresh= 2.410E-05 alpha_mix =  0.700 |ddv_scf|^2 =  5.616E-09

      iter #   3 total cpu time :  4711.4 secs   av.it.:  16.1
      thresh= 7.494E-06 alpha_mix =  0.700 |ddv_scf|^2 =  2.271E-10

      iter #   4 total cpu time :  4730.9 secs   av.it.:  14.4
      thresh= 1.507E-06 alpha_mix =  0.700 |ddv_scf|^2 =  6.406E-14

      iter #   5 total cpu time :  4760.8 secs   av.it.:  15.8
      thresh= 2.531E-08 alpha_mix =  0.700 |ddv_scf|^2 =  2.725E-15

      iter #   6 total cpu time :  4792.8 secs   av.it.:  15.2
      thresh= 5.220E-09 alpha_mix =  0.700 |ddv_scf|^2 =  1.078E-17

      iter #   7 total cpu time :  4828.6 secs   av.it.:  16.3
      thresh= 3.284E-10 alpha_mix =  0.700 |ddv_scf|^2 =  4.032E-19

      iter #   8 total cpu time :  4849.5 secs   av.it.:  16.8
      thresh= 6.350E-11 alpha_mix =  0.700 |ddv_scf|^2 =  1.375E-20

      iter #   9 total cpu time :  4880.1 secs   av.it.:  16.4
      thresh= 1.173E-11 alpha_mix =  0.700 |ddv_scf|^2 =  9.224E-22

     End of self-consistent calculation

     Convergence has been achieved 


     Representation #   5 mode #   5

     Self-consistent Calculation

      iter #   1 total cpu time :  4901.1 secs   av.it.:   7.1
      thresh= 1.000E-02 alpha_mix =  0.700 |ddv_scf|^2 =  9.371E-09

      iter #   2 total cpu time :  4935.2 secs   av.it.:  16.5
      thresh= 9.680E-06 alpha_mix =  0.700 |ddv_scf|^2 =  7.829E-10

      iter #   3 total cpu time :  4950.6 secs   av.it.:  16.1
      thresh= 2.798E-06 alpha_mix =  0.700 |ddv_scf|^2 =  7.763E-11

      iter #   4 total cpu time :  4973.5 secs   av.it.:  15.9
      thresh= 8.811E-07 alpha_mix =  0.700 |ddv_scf|^2 =  1.165E-12

      iter #   5 total cpu time :  4995.9 secs   av.it.:  16.2
      thresh= 1.079E-07 alpha_mix =  0.700 |ddv_scf|^2 =  5.125E-14

      iter #   6 total cpu time :  5011.0 secs   av.it.:  16.5
      thresh= 2.264E-08 alpha_mix =  0.700 |ddv_scf|^2 =  1.487E-16

      iter #   7 total cpu time :  5038.2 secs   av.it.:  16.5
      thresh= 1.219E-09 alpha_mix =  0.700 |ddv_scf|^2 =  4.162E-18

      iter #   8 total cpu time :  5056.3 secs   av.it.:  15.7
      thresh= 2.040E-10 alpha_mix =  0.700 |ddv_scf|^2 =  5.450E-20

      iter #   9 total cpu time :  5077.0 secs   av.it.:  16.1
      thresh= 2.334E-11 alpha_mix =  0.700 |ddv_scf|^2 =  2.260E-21

      iter #  10 total cpu time :  5094.2 secs   av.it.:  16.5
      thresh= 4.754E-12 alpha_mix =  0.700 |ddv_scf|^2 =  1.596E-22

     End of self-consistent calculation

     Convergence has been achieved 


     Representation #   6 mode #   6

     Self-consistent Calculation

      iter #   1 total cpu time :  5103.1 secs   av.it.:   8.0
      thresh= 1.000E-02 alpha_mix =  0.700 |ddv_scf|^2 =  7.155E-08

      iter #   2 total cpu time :  5126.8 secs   av.it.:  16.5
      thresh= 2.675E-05 alpha_mix =  0.700 |ddv_scf|^2 =  8.893E-09

      iter #   3 total cpu time :  5151.3 secs   av.it.:  16.3
      thresh= 9.430E-06 alpha_mix =  0.700 |ddv_scf|^2 =  2.514E-10

      iter #   4 total cpu time :  5168.0 secs   av.it.:  14.6
      thresh= 1.586E-06 alpha_mix =  0.700 |ddv_scf|^2 =  1.573E-13

      iter #   5 total cpu time :  5188.8 secs   av.it.:  16.2
      thresh= 3.967E-08 alpha_mix =  0.700 |ddv_scf|^2 =  1.984E-14

      iter #   6 total cpu time :  5205.6 secs   av.it.:  16.3
      thresh= 1.409E-08 alpha_mix =  0.700 |ddv_scf|^2 =  2.633E-16

      iter #   7 total cpu time :  5224.5 secs   av.it.:  16.4
      thresh= 1.623E-09 alpha_mix =  0.700 |ddv_scf|^2 =  1.456E-17

      iter #   8 total cpu time :  5239.2 secs   av.it.:  16.4
      thresh= 3.816E-10 alpha_mix =  0.700 |ddv_scf|^2 =  8.919E-20

      iter #   9 total cpu time :  5256.0 secs   av.it.:  16.7
      thresh= 2.987E-11 alpha_mix =  0.700 |ddv_scf|^2 =  4.324E-21

      iter #  10 total cpu time :  5275.9 secs   av.it.:  16.5
      thresh= 6.576E-12 alpha_mix =  0.700 |ddv_scf|^2 =  2.397E-22

     End of self-consistent calculation

     Convergence has been achieved 


     Representation #   7 mode #   7

     Self-consistent Calculation

      iter #   1 total cpu time :  5289.6 secs   av.it.:   8.4
      thresh= 1.000E-02 alpha_mix =  0.700 |ddv_scf|^2 =  4.209E-06

      iter #   2 total cpu time :  5306.3 secs   av.it.:  15.7
      thresh= 2.052E-04 alpha_mix =  0.700 |ddv_scf|^2 =  3.667E-05

      iter #   3 total cpu time :  5332.1 secs   av.it.:  13.6
      thresh= 6.056E-04 alpha_mix =  0.700 |ddv_scf|^2 =  3.902E-08

      iter #   4 total cpu time :  5347.8 secs   av.it.:  15.2
[...]
      thresh= 9.091E-04 alpha_mix =  0.700 |ddv_scf|^2 =  8.868E-08

      iter #   4 total cpu time : 35162.9 secs   av.it.:  15.8
      thresh= 2.978E-05 alpha_mix =  0.700 |ddv_scf|^2 =  4.341E-09

      iter #   5 total cpu time : 35190.8 secs   av.it.:  16.1
      thresh= 6.589E-06 alpha_mix =  0.700 |ddv_scf|^2 =  6.177E-10

      iter #   6 total cpu time : 35222.3 secs   av.it.:  16.1
      thresh= 2.485E-06 alpha_mix =  0.700 |ddv_scf|^2 =  2.415E-11

      iter #   7 total cpu time : 35253.5 secs   av.it.:  16.7
      thresh= 4.914E-07 alpha_mix =  0.700 |ddv_scf|^2 =  5.972E-11

      iter #   8 total cpu time : 35282.5 secs   av.it.:  15.4
      thresh= 7.728E-07 alpha_mix =  0.700 |ddv_scf|^2 =  6.862E-11

      iter #   9 total cpu time : 35312.7 secs   av.it.:  14.7
      thresh= 8.283E-07 alpha_mix =  0.700 |ddv_scf|^2 =  1.426E-11

      iter #  10 total cpu time : 35340.9 secs   av.it.:  14.8
      thresh= 3.777E-07 alpha_mix =  0.700 |ddv_scf|^2 =  2.034E-12

      iter #  11 total cpu time : 35368.1 secs   av.it.:  15.6
      thresh= 1.426E-07 alpha_mix =  0.700 |ddv_scf|^2 =  2.898E-13

      iter #  12 total cpu time : 35400.3 secs   av.it.:  15.8
      thresh= 5.383E-08 alpha_mix =  0.700 |ddv_scf|^2 =  2.059E-14

      iter #  13 total cpu time : 35431.1 secs   av.it.:  16.2
      thresh= 1.435E-08 alpha_mix =  0.700 |ddv_scf|^2 =  8.432E-15

      iter #  14 total cpu time : 35461.4 secs   av.it.:  16.2
      thresh= 9.183E-09 alpha_mix =  0.700 |ddv_scf|^2 =  3.370E-14

      iter #  15 total cpu time : 35489.6 secs   av.it.:  14.6
      thresh= 1.836E-08 alpha_mix =  0.700 |ddv_scf|^2 =  6.785E-15

      iter #  16 total cpu time : 35521.2 secs   av.it.:  15.2
      thresh= 8.237E-09 alpha_mix =  0.700 |ddv_scf|^2 =  2.557E-15

      iter #  17 total cpu time : 35557.2 secs   av.it.:  15.4
      thresh= 5.057E-09 alpha_mix =  0.700 |ddv_scf|^2 =  1.128E-15

      iter #  18 total cpu time : 35587.4 secs   av.it.:  15.6
      thresh= 3.358E-09 alpha_mix =  0.700 |ddv_scf|^2 =  4.224E-16

      iter #  19 total cpu time : 35614.9 secs   av.it.:  15.1
      thresh= 2.055E-09 alpha_mix =  0.700 |ddv_scf|^2 =  1.828E-17

      iter #  20 total cpu time : 35647.0 secs   av.it.:  16.6
      thresh= 4.276E-10 alpha_mix =  0.700 |ddv_scf|^2 =  2.118E-17

      iter #  21 total cpu time : 35677.6 secs   av.it.:  16.3
      thresh= 4.603E-10 alpha_mix =  0.700 |ddv_scf|^2 =  8.039E-17

      iter #  22 total cpu time : 35707.0 secs   av.it.:  14.8
      thresh= 8.966E-10 alpha_mix =  0.700 |ddv_scf|^2 =  8.596E-18

      iter #  23 total cpu time : 35741.0 secs   av.it.:  15.5
      thresh= 2.932E-10 alpha_mix =  0.700 |ddv_scf|^2 =  1.794E-18

      iter #  24 total cpu time : 35772.6 secs   av.it.:  16.7
      thresh= 1.339E-10 alpha_mix =  0.700 |ddv_scf|^2 =  2.595E-17

      iter #  25 total cpu time : 35797.2 secs   av.it.:  14.2
      thresh= 5.094E-10 alpha_mix =  0.700 |ddv_scf|^2 =  1.482E-19

      iter #  26 total cpu time : 35828.0 secs   av.it.:  16.0
      thresh= 3.850E-11 alpha_mix =  0.700 |ddv_scf|^2 =  4.805E-20

      iter #  27 total cpu time : 35859.2 secs   av.it.:  16.3
      thresh= 2.192E-11 alpha_mix =  0.700 |ddv_scf|^2 =  6.516E-20

      iter #  28 total cpu time : 35890.3 secs   av.it.:  15.4
      thresh= 2.553E-11 alpha_mix =  0.700 |ddv_scf|^2 =  6.416E-20

      iter #  29 total cpu time : 35927.9 secs   av.it.:  15.1
      thresh= 2.533E-11 alpha_mix =  0.700 |ddv_scf|^2 =  8.739E-21

      iter #  30 total cpu time : 35957.2 secs   av.it.:  15.9
      thresh= 9.348E-12 alpha_mix =  0.700 |ddv_scf|^2 =  1.045E-21

      iter #  31 total cpu time : 35987.8 secs   av.it.:  16.2
      thresh= 3.232E-12 alpha_mix =  0.700 |ddv_scf|^2 =  2.013E-21

      iter #  32 total cpu time : 36014.5 secs   av.it.:  15.1
      thresh= 4.487E-12 alpha_mix =  0.700 |ddv_scf|^2 =  1.140E-22

     End of self-consistent calculation

     Convergence has been achieved 


     Representation #   6 mode #   6

     Self-consistent Calculation

      iter #   1 total cpu time : 36033.7 secs   av.it.:   8.3
      thresh= 1.000E-02 alpha_mix =  0.700 |ddv_scf|^2 =  8.204E-07

      iter #   2 total cpu time : 36071.0 secs   av.it.:  16.3
      thresh= 9.057E-05 alpha_mix =  0.700 |ddv_scf|^2 =  1.266E-06

      iter #   3 total cpu time : 36101.4 secs   av.it.:  15.2
      thresh= 1.125E-04 alpha_mix =  0.700 |ddv_scf|^2 =  2.628E-08

      iter #   4 total cpu time : 36131.1 secs   av.it.:  15.7
      thresh= 1.621E-05 alpha_mix =  0.700 |ddv_scf|^2 =  3.405E-10

      iter #   5 total cpu time : 36156.8 secs   av.it.:  15.7
      thresh= 1.845E-06 alpha_mix =  0.700 |ddv_scf|^2 =  1.638E-11

      iter #   6 total cpu time : 36187.4 secs   av.it.:  16.1
      thresh= 4.047E-07 alpha_mix =  0.700 |ddv_scf|^2 =  4.665E-14

      iter #   7 total cpu time : 36218.4 secs   av.it.:  15.9
      thresh= 2.160E-08 alpha_mix =  0.700 |ddv_scf|^2 =  2.839E-15

      iter #   8 total cpu time : 36250.0 secs   av.it.:  15.6
      thresh= 5.328E-09 alpha_mix =  0.700 |ddv_scf|^2 =  2.791E-16

      iter #   9 total cpu time : 36281.9 secs   av.it.:  16.6
      thresh= 1.671E-09 alpha_mix =  0.700 |ddv_scf|^2 =  3.219E-16

      iter #  10 total cpu time : 36311.3 secs   av.it.:  15.4
      thresh= 1.794E-09 alpha_mix =  0.700 |ddv_scf|^2 =  1.256E-17

      iter #  11 total cpu time : 36343.7 secs   av.it.:  16.1
      thresh= 3.545E-10 alpha_mix =  0.700 |ddv_scf|^2 =  1.615E-18

      iter #  12 total cpu time : 36371.7 secs   av.it.:  16.1
      thresh= 1.271E-10 alpha_mix =  0.700 |ddv_scf|^2 =  6.405E-19

      iter #  13 total cpu time : 36402.2 secs   av.it.:  15.6
      thresh= 8.003E-11 alpha_mix =  0.700 |ddv_scf|^2 =  3.939E-20

      iter #  14 total cpu time : 36432.5 secs   av.it.:  16.2
      thresh= 1.985E-11 alpha_mix =  0.700 |ddv_scf|^2 =  3.407E-21

      iter #  15 total cpu time : 36462.7 secs   av.it.:  16.4
      thresh= 5.837E-12 alpha_mix =  0.700 |ddv_scf|^2 =  6.222E-22

     End of self-consistent calculation

     Convergence has been achieved 


     Representation #   7 mode #   7

     Self-consistent Calculation

      iter #   1 total cpu time : 36479.0 secs   av.it.:   7.7
      thresh= 1.000E-02 alpha_mix =  0.700 |ddv_scf|^2 =  2.142E-07

      iter #   2 total cpu time : 36519.7 secs   av.it.:  16.5
      thresh= 4.628E-05 alpha_mix =  0.700 |ddv_scf|^2 =  4.291E-07

      iter #   3 total cpu time : 36547.0 secs   av.it.:  15.1
      thresh= 6.551E-05 alpha_mix =  0.700 |ddv_scf|^2 =  2.937E-09

      iter #   4 total cpu time : 36578.5 secs   av.it.:  15.9
      thresh= 5.420E-06 alpha_mix =  0.700 |ddv_scf|^2 =  1.286E-10

      iter #   5 total cpu time : 36606.0 secs   av.it.:  15.8
      thresh= 1.134E-06 alpha_mix =  0.700 |ddv_scf|^2 =  3.938E-12

      iter #   6 total cpu time : 36637.3 secs   av.it.:  16.1
      thresh= 1.984E-07 alpha_mix =  0.700 |ddv_scf|^2 =  1.510E-13

      iter #   7 total cpu time : 36667.9 secs   av.it.:  16.2
      thresh= 3.886E-08 alpha_mix =  0.700 |ddv_scf|^2 =  1.614E-15

      iter #   8 total cpu time : 36699.2 secs   av.it.:  16.2
      thresh= 4.018E-09 alpha_mix =  0.700 |ddv_scf|^2 =  3.957E-16

      iter #   9 total cpu time : 36740.2 secs   av.it.:  16.4
      thresh= 1.989E-09 alpha_mix =  0.700 |ddv_scf|^2 =  1.795E-16

      iter #  10 total cpu time : 36767.9 secs   av.it.:  15.9
      thresh= 1.340E-09 alpha_mix =  0.700 |ddv_scf|^2 =  2.705E-17

      iter #  11 total cpu time : 36796.8 secs   av.it.:  15.8
      thresh= 5.201E-10 alpha_mix =  0.700 |ddv_scf|^2 =  9.462E-19

      iter #  12 total cpu time : 36828.8 secs   av.it.:  16.1
      thresh= 9.727E-11 alpha_mix =  0.700 |ddv_scf|^2 =  1.781E-19

      iter #  13 total cpu time : 36857.6 secs   av.it.:  16.1
      thresh= 4.220E-11 alpha_mix =  0.700 |ddv_scf|^2 =  2.773E-20

      iter #  14 total cpu time : 36887.1 secs   av.it.:  16.1
      thresh= 1.665E-11 alpha_mix =  0.700 |ddv_scf|^2 =  1.977E-21

      iter #  15 total cpu time : 36917.4 secs   av.it.:  16.2
      thresh= 4.446E-12 alpha_mix =  0.700 |ddv_scf|^2 =  1.581E-22

     End of self-consistent calculation

     Convergence has been achieved 


     Representation #   8 mode #   8

     Self-consistent Calculation

      iter #   1 total cpu time : 36934.9 secs   av.it.:   8.1
      thresh= 1.000E-02 alpha_mix =  0.700 |ddv_scf|^2 =  2.569E-07

      iter #   2 total cpu time : 36972.3 secs   av.it.:  16.3
      thresh= 5.069E-05 alpha_mix =  0.700 |ddv_scf|^2 =  3.061E-07

      iter #   3 total cpu time : 37001.4 secs   av.it.:  15.4
      thresh= 5.533E-05 alpha_mix =  0.700 |ddv_scf|^2 =  1.806E-08

      iter #   4 total cpu time : 37027.2 secs   av.it.:  15.4
      thresh= 1.344E-05 alpha_mix =  0.700 |ddv_scf|^2 =  3.464E-10

      iter #   5 total cpu time : 37055.7 secs   av.it.:  15.5
      thresh= 1.861E-06 alpha_mix =  0.700 |ddv_scf|^2 =  2.210E-11

      iter #   6 total cpu time : 37085.0 secs   av.it.:  15.9
      thresh= 4.701E-07 alpha_mix =  0.700 |ddv_scf|^2 =  1.001E-13

      iter #   7 total cpu time : 37114.9 secs   av.it.:  15.0
      thresh= 3.165E-08 alpha_mix =  0.700 |ddv_scf|^2 =  7.702E-15

      iter #   8 total cpu time : 37145.7 secs   av.it.:  15.2
      thresh= 8.776E-09 alpha_mix =  0.700 |ddv_scf|^2 =  1.994E-16

      iter #   9 total cpu time : 37172.1 secs   av.it.:  16.1
      thresh= 1.412E-09 alpha_mix =  0.700 |ddv_scf|^2 =  1.382E-17

      iter #  10 total cpu time : 37204.0 secs   av.it.:  16.3
      thresh= 3.718E-10 alpha_mix =  0.700 |ddv_scf|^2 =  1.117E-17

      iter #  11 total cpu time : 37233.4 secs   av.it.:  15.4
      thresh= 3.342E-10 alpha_mix =  0.700 |ddv_scf|^2 =  2.437E-19

      iter #  12 total cpu time : 37265.4 secs   av.it.:  16.4
      thresh= 4.936E-11 alpha_mix =  0.700 |ddv_scf|^2 =  1.536E-19

      iter #  13 total cpu time : 37295.7 secs   av.it.:  15.6
      thresh= 3.919E-11 alpha_mix =  0.700 |ddv_scf|^2 =  6.464E-21

      iter #  14 total cpu time : 37325.6 secs   av.it.:  16.0
      thresh= 8.040E-12 alpha_mix =  0.700 |ddv_scf|^2 =  1.014E-21

      iter #  15 total cpu time : 37356.1 secs   av.it.:  16.1
      thresh= 3.184E-12 alpha_mix =  0.700 |ddv_scf|^2 =  6.158E-23

     End of self-consistent calculation

     Convergence has been achieved 


     Representation #   9 mode #   9

     Self-consistent Calculation

      iter #   1 total cpu time : 37373.1 secs   av.it.:   8.1
      thresh= 1.000E-02 alpha_mix =  0.700 |ddv_scf|^2 =  2.906E-07

      iter #   2 total cpu time : 37411.2 secs   av.it.:  16.4
      thresh= 5.391E-05 alpha_mix =  0.700 |ddv_scf|^2 =  3.846E-07

      iter #   3 total cpu time : 37441.0 secs   av.it.:  15.3
      thresh= 6.202E-05 alpha_mix =  0.700 |ddv_scf|^2 =  1.308E-08

      iter #   4 total cpu time : 37468.0 secs   av.it.:  15.7
      thresh= 1.144E-05 alpha_mix =  0.700 |ddv_scf|^2 =  4.481E-10

      iter #   5 total cpu time : 37498.3 secs   av.it.:  16.0
      thresh= 2.117E-06 alpha_mix =  0.700 |ddv_scf|^2 =  4.891E-11

      iter #   6 total cpu time : 37528.7 secs   av.it.:  15.9
      thresh= 6.994E-07 alpha_mix =  0.700 |ddv_scf|^2 =  4.769E-14

      iter #   7 total cpu time : 37558.7 secs   av.it.:  15.7
      thresh= 2.184E-08 alpha_mix =  0.700 |ddv_scf|^2 =  2.576E-15

      iter #   8 total cpu time : 37593.4 secs   av.it.:  15.9
      thresh= 5.076E-09 alpha_mix =  0.700 |ddv_scf|^2 =  4.475E-16

      iter #   9 total cpu time : 37622.7 secs   av.it.:  15.9
      thresh= 2.115E-09 alpha_mix =  0.700 |ddv_scf|^2 =  1.891E-17

      iter #  10 total cpu time : 37654.5 secs   av.it.:  16.4
      thresh= 4.349E-10 alpha_mix =  0.700 |ddv_scf|^2 =  1.122E-18

      iter #  11 total cpu time : 37683.2 secs   av.it.:  16.3
      thresh= 1.059E-10 alpha_mix =  0.700 |ddv_scf|^2 =  6.099E-19

      iter #  12 total cpu time : 37713.5 secs   av.it.:  15.9
      thresh= 7.809E-11 alpha_mix =  0.700 |ddv_scf|^2 =  2.283E-19

      iter #  13 total cpu time : 37745.1 secs   av.it.:  15.6
      thresh= 4.778E-11 alpha_mix =  0.700 |ddv_scf|^2 =  4.875E-21

      iter #  14 total cpu time : 37774.4 secs   av.it.:  16.2
      thresh= 6.982E-12 alpha_mix =  0.700 |ddv_scf|^2 =  4.552E-22

     End of self-consistent calculation

     Convergence has been achieved 
 
     Number of q in the star =    6
     List of q in the star:
          1   0.083333333   0.433012702   0.000000000
          2  -0.083333333   0.433012702   0.000000000
          3   0.333333333  -0.288675135   0.000000000
          4  -0.416666667  -0.144337567   0.000000000
          5  -0.333333333  -0.288675135   0.000000000
          6   0.416666667  -0.144337567   0.000000000
     In addition there is the -q list: 
          1  -0.083333333  -0.433012702   0.000000000
          2   0.083333333  -0.433012702   0.000000000
          3  -0.333333333   0.288675135   0.000000000
          4   0.416666667   0.144337567   0.000000000
          5   0.333333333   0.288675135   0.000000000
          6  -0.416666667   0.144337567   0.000000000

     Diagonalizing the dynamical matrix

     q = (    0.083333333   0.433012702   0.000000000 ) 

 **************************************************************************
     freq (    1) =      -2.639859 [THz] =     -88.056224 [cm-1]
     freq (    2) =       2.199407 [THz] =      73.364329 [cm-1]
     freq (    3) =       2.879589 [THz] =      96.052738 [cm-1]
     freq (    4) =       6.774685 [THz] =     225.979156 [cm-1]
     freq (    5) =       8.263307 [THz] =     275.634263 [cm-1]
     freq (    6) =       9.199991 [THz] =     306.878671 [cm-1]
     freq (    7) =       9.297516 [THz] =     310.131762 [cm-1]
     freq (    8) =       9.737614 [THz] =     324.811837 [cm-1]
     freq (    9) =      11.365401 [THz] =     379.108966 [cm-1]
 **************************************************************************

     Mode symmetry, C_s (m)     point group:

     freq (   1-   1) =        -88.1  [cm-1]   --> A'                 
     freq (   2-   2) =         73.4  [cm-1]   --> A''                
     freq (   3-   3) =         96.1  [cm-1]   --> A'                 
     freq (   4-   4) =        226.0  [cm-1]   --> A'                 
     freq (   5-   5) =        275.6  [cm-1]   --> A''                
     freq (   6-   6) =        306.9  [cm-1]   --> A''                
     freq (   7-   7) =        310.1  [cm-1]   --> A'                 
     freq (   8-   8) =        324.8  [cm-1]   --> A''                
     freq (   9-   9) =        379.1  [cm-1]   --> A'                 
 
     init_run     :      1.89s CPU     14.30s WALL (      10 calls)
     electrons    :    562.64s CPU    625.46s WALL (      10 calls)

     Called by init_run:
     wfcinit      :      0.00s CPU      0.99s WALL (      10 calls)
     potinit      :      0.15s CPU     11.51s WALL (      10 calls)
     hinit0       :      0.92s CPU      0.94s WALL (      10 calls)

     Called by electrons:
     c_bands      :    562.48s CPU    625.30s WALL (      10 calls)
     v_of_rho     :      0.13s CPU      0.13s WALL (      11 calls)

     Called by c_bands:
     init_us_2    :     92.85s CPU     98.52s WALL (  765440 calls)
     init_us_2:cp :     90.92s CPU     96.73s WALL (  765440 calls)
     cegterg      :    470.93s CPU    483.43s WALL (   11838 calls)

     Called by *egterg:
     cdiaghg      :     72.02s CPU     73.99s WALL (  170206 calls)
     h_psi        :  19181.52s CPU  19851.38s WALL (14714051 calls)
     g_psi        :      3.37s CPU      3.46s WALL (  162284 calls)

     Called by h_psi:
     h_psi:calbec :    820.82s CPU    850.21s WALL (14714051 calls)
     vloc_psi     :  17570.91s CPU  18182.74s WALL (14714051 calls)
     add_vuspsi   :    638.09s CPU    666.17s WALL (14714051 calls)

     General routines
     calbec       :   1525.21s CPU   1586.59s WALL (29431436 calls)
     fft          :     12.97s CPU     13.45s WALL (   22547 calls)
     ffts         :      8.67s CPU      9.00s WALL (   43669 calls)
     fftw         :  26135.57s CPU  26830.23s WALL (******** calls)
     interpolate  :      2.32s CPU      2.62s WALL (    3439 calls)
     davcio       :    102.09s CPU   2047.67s WALL ( 3497258 calls)
 
     Parallel routines
 
     PHONON       :      9h 5m CPU     10h29m WALL

     INITIALIZATION: 
     phq_setup    :      0.32s CPU      0.63s WALL (      11 calls)
     phq_init     :      9.20s CPU      9.69s WALL (      11 calls)
 
     phq_init     :      9.20s CPU      9.69s WALL (      11 calls)
     init_vloc    :      0.65s CPU      0.65s WALL (      11 calls)
     init_us_1    :      0.27s CPU      0.29s WALL (      11 calls)
     init_us_2    :     92.85s CPU     98.52s WALL (  765440 calls)
 
     DYNAMICAL MATRIX:
     dynmat0      :      4.83s CPU      5.16s WALL (      11 calls)
     phqscf       :  32129.49s CPU  36959.13s WALL (      11 calls)
     dynmatrix    :      1.20s CPU      1.84s WALL (      11 calls)
 
     phqscf       :  32129.49s CPU  36959.13s WALL (      11 calls)
     solve_linter :  32108.69s CPU  36902.81s WALL (      96 calls)
     drhodv       :     20.70s CPU     22.57s WALL (      96 calls)
 
     dynmat0      :      4.83s CPU      5.16s WALL (      11 calls)
     dynmat_us    :      4.79s CPU      4.95s WALL (      11 calls)
     d2ionq       :      0.04s CPU      0.04s WALL (      11 calls)
 
     dynmat_us    :      4.79s CPU      4.95s WALL (      11 calls)
 
     phqscf       :  32129.49s CPU  36959.13s WALL (      11 calls)
     solve_linter :  32108.69s CPU  36902.81s WALL (      96 calls)
 
     solve_linter :  32108.69s CPU  36902.81s WALL (      96 calls)
     dvqpsi_us    :    110.30s CPU    114.91s WALL (   36198 calls)
     sth_kernel   :  31504.16s CPU  34229.30s WALL (    1679 calls)
     apply_dpot_b :   1200.43s CPU   1274.58s WALL (  642527 calls)
     ortho        :     73.06s CPU     77.46s WALL (  678725 calls)
     cgsolve      :  21158.75s CPU  21902.57s WALL (  678725 calls)
     incdrhoscf   :   8839.14s CPU   8903.37s WALL (  678725 calls)
     dv_of_drho   :     17.13s CPU     17.67s WALL (    1706 calls)
     mix_pot      :    159.45s CPU   1507.40s WALL (    1679 calls)
     ef_shift     :      0.07s CPU      0.09s WALL (      67 calls)
     ef_shift_wfc :      0.01s CPU      0.03s WALL (       6 calls)
     localdos     :      1.05s CPU      1.07s WALL (       6 calls)
     psymdvscf    :     87.02s CPU     88.87s WALL (    1679 calls)
 
     dvqpsi_us    :    110.30s CPU    114.91s WALL (   36198 calls)
     dvqpsi_us_on :      9.58s CPU      9.97s WALL (   36198 calls)
 
     cgsolve      :  21158.75s CPU  21902.57s WALL (  678725 calls)
     ch_psi       :  20680.34s CPU  21399.96s WALL (14532007 calls)
 
     ch_psi       :  20680.34s CPU  21399.96s WALL (14532007 calls)
     h_psi        :  19181.52s CPU  19851.38s WALL (14714051 calls)
     last         :   1656.57s CPU   1716.10s WALL (14532007 calls)
 
     h_psi        :  19181.52s CPU  19851.38s WALL (14714051 calls)
     add_vuspsi   :    638.09s CPU    666.17s WALL (14714051 calls)
 
     incdrhoscf   :   8839.14s CPU   8903.37s WALL (  678725 calls)
 
 
      General routines
     calbec       :   1525.21s CPU   1586.59s WALL (29431436 calls)
     fft          :     12.97s CPU     13.45s WALL (   22547 calls)
     ffts         :      8.67s CPU      9.00s WALL (   43669 calls)
     fftw         :  26135.57s CPU  26830.23s WALL (******** calls)
     davcio       :    102.09s CPU   2047.67s WALL ( 3497258 calls)
     write_rec    :      1.45s CPU    740.06s WALL (    1775 calls)
 
 
     PHONON       :      9h 5m CPU     10h29m WALL

 
   This run was terminated on:   0:21:18   8Jun2022            

=------------------------------------------------------------------------------=
   JOB DONE.
=------------------------------------------------------------------------------=
