Module for gcc 10.2:
(GNU C/C++/FORTRAN compilers v10.2.0) - loaded.
Module for OpenMPI 4.1.0-gcc10.2-infiniband loaded.
Module for OpenBLAS v.0.3.20 - loaded.
Module for scalapack 2.2.0 loaded.

     Program PWSCF v.7.0 starts on 30Apr2022 at 11:36: 1 

     This program is part of the open-source Quantum ESPRESSO suite
     for quantum simulation of materials; please cite
         "P. Giannozzi et al., J. Phys.:Condens. Matter 21 395502 (2009);
         "P. Giannozzi et al., J. Phys.:Condens. Matter 29 465901 (2017);
         "P. Giannozzi et al., J. Chem. Phys. 152 154105 (2020);
          URL http://www.quantum-espresso.org", 
     in publications or presentations arising from this work. More details at
     http://www.quantum-espresso.org/quote

     Parallel version (MPI), running on    28 processors

     MPI processes distributed on     2 nodes
     K-points division:     npool     =      14
     R & G space division:  proc/nbgrp/npool/nimage =       2
     48722 MiB available memory on the printing compute node when the environment starts

     Reading input from in_files/si_ph_bench_nk_ompi_14_n_procs_28_1.scf

     Current dimensions of program PWSCF are:
     Max number of different atomic species (ntypx) = 10
     Max number of k-points (npk) =  40000
     Max angular momentum in pseudopotentials (lmaxx) =  4

     Subspace diagonalization in iterative solution of the eigenvalue problem:
     a serial algorithm will be used


     Parallelization info
     --------------------
     sticks:   dense  smooth     PW     G-vecs:    dense   smooth      PW
     Min         501     501    150                10436    10436    1738
     Max         502     502    151                10439    10439    1741
     Sum        1003    1003    301                20875    20875    3479

     Using Slab Decomposition



     bravais-lattice index     =            2
     lattice parameter (alat)  =      10.1899  a.u.
     unit-cell volume          =     264.5151 (a.u.)^3
     number of atoms/cell      =            2
     number of atomic types    =            1
     number of electrons       =         8.00
     number of Kohn-Sham states=            4
     kinetic-energy cutoff     =      70.0000  Ry
     charge density cutoff     =     280.0000  Ry
     scf convergence threshold =      1.0E-10
     mixing beta               =       0.7000
     number of iterations used =            8  plain     mixing
     Exchange-correlation= SLA  PW   NOGX NOGC
                           (   1   4   0   0   0   0   0)

     celldm(1)=  10.189905  celldm(2)=   0.000000  celldm(3)=   0.000000
     celldm(4)=   0.000000  celldm(5)=   0.000000  celldm(6)=   0.000000

     crystal axes: (cart. coord. in units of alat)
               a(1) = (  -0.500000   0.000000   0.500000 )  
               a(2) = (   0.000000   0.500000   0.500000 )  
               a(3) = (  -0.500000   0.500000   0.000000 )  

     reciprocal axes: (cart. coord. in units 2 pi/alat)
               b(1) = ( -1.000000 -1.000000  1.000000 )  
               b(2) = (  1.000000  1.000000  1.000000 )  
               b(3) = ( -1.000000  1.000000 -1.000000 )  


     PseudoPot. # 1 for Si read from file:
     ./pseudos/Si.nc.UPF
     MD5 check sum: 9e2d726316af3d4752eea8ab0afbb951
     Pseudo is Norm-conserving + core correction, Zval =  4.0
     Generated using ONCVPSP code by D. R. Hamann
     Using radial grid of 1510 points,  6 beta functions with: 
                l(1) =   0
                l(2) =   0
                l(3) =   1
                l(4) =   1
                l(5) =   2
                l(6) =   2

     atomic species   valence    mass     pseudopotential
        Si             4.00    28.08550     Si( 1.00)

     48 Sym. Ops., with inversion, found (24 have fractional translation)



   Cartesian axes

     site n.     atom                  positions (alat units)
         1           Si  tau(   1) = (   0.0000000   0.0000000   0.0000000  )
         2           Si  tau(   2) = (  -0.2500000   0.2500000   0.2500000  )

     number of k points=    28
                       cart. coord. in units 2pi/alat
        k(    1) = (  -0.0833333   0.0833333   0.0833333), wk =   0.0185185
        k(    2) = (  -0.2500000   0.2500000  -0.0833333), wk =   0.0555556
        k(    3) = (  -0.4166667   0.4166667  -0.2500000), wk =   0.0555556
        k(    4) = (   0.4166667  -0.4166667   0.5833333), wk =   0.0555556
        k(    5) = (   0.2500000  -0.2500000   0.4166667), wk =   0.0555556
        k(    6) = (   0.0833333  -0.0833333   0.2500000), wk =   0.0555556
        k(    7) = (  -0.0833333   0.4166667   0.0833333), wk =   0.0555556
        k(    8) = (  -0.2500000   0.5833333  -0.0833333), wk =   0.1111111
        k(    9) = (   0.5833333  -0.2500000   0.7500000), wk =   0.1111111
        k(   10) = (   0.4166667  -0.0833333   0.5833333), wk =   0.1111111
        k(   11) = (   0.2500000   0.0833333   0.4166667), wk =   0.1111111
        k(   12) = (  -0.0833333   0.7500000   0.0833333), wk =   0.0555556
        k(   13) = (   0.7500000  -0.0833333   0.9166667), wk =   0.1111111
        k(   14) = (   0.5833333   0.0833333   0.7500000), wk =   0.1111111
        k(   15) = (   0.4166667   0.2500000   0.5833333), wk =   0.1111111
        k(   16) = (  -0.0833333  -0.9166667   0.0833333), wk =   0.0555556
        k(   17) = (  -0.2500000  -0.7500000  -0.0833333), wk =   0.1111111
        k(   18) = (  -0.0833333  -0.5833333   0.0833333), wk =   0.0555556
        k(   19) = (  -0.2500000   0.2500000   0.2500000), wk =   0.0185185
        k(   20) = (  -0.4166667   0.4166667   0.0833333), wk =   0.0555556
        k(   21) = (   0.4166667  -0.4166667   0.9166667), wk =   0.0555556
        k(   22) = (   0.2500000  -0.2500000   0.7500000), wk =   0.0555556
        k(   23) = (  -0.2500000   0.5833333   0.2500000), wk =   0.0555556
        k(   24) = (   0.5833333  -0.2500000   1.0833333), wk =   0.1111111
        k(   25) = (   0.4166667  -0.0833333   0.9166667), wk =   0.1111111
        k(   26) = (  -0.2500000  -1.0833333   0.2500000), wk =   0.0555556
        k(   27) = (  -0.4166667   0.4166667   0.4166667), wk =   0.0185185
        k(   28) = (   0.4166667  -0.4166667   1.2500000), wk =   0.0555556

     Dense  grid:    20875 G-vectors     FFT dimensions: (  40,  40,  40)

     Estimated max dynamical RAM per process >       9.16 MB

     Estimated total dynamical RAM >     190.32 MB

     Initial potential from superposition of free atoms

     starting charge       7.9989, renormalised to       8.0000
     Starting wfcs are    8 randomized atomic wfcs

     total cpu time spent up to now is       26.1 secs

     Self-consistent Calculation

     iteration #  1     ecut=    70.00 Ry     beta= 0.70
     Davidson diagonalization with overlap
     ethr =  1.00E-02,  avg # of iterations =  2.0

     Threshold (ethr) on eigenvalues was too large:
     Diagonalizing with lowered threshold

     Davidson diagonalization with overlap
     ethr =  6.12E-04,  avg # of iterations =  2.0

     total cpu time spent up to now is       28.5 secs

     total energy              =     -17.04758595 Ry
     estimated scf accuracy    <       0.05800908 Ry

     iteration #  2     ecut=    70.00 Ry     beta= 0.70
     Davidson diagonalization with overlap
     ethr =  7.25E-04,  avg # of iterations =  1.0

     total cpu time spent up to now is       29.4 secs

     total energy              =     -17.04993856 Ry
     estimated scf accuracy    <       0.00249781 Ry

     iteration #  3     ecut=    70.00 Ry     beta= 0.70
     Davidson diagonalization with overlap
     ethr =  3.12E-05,  avg # of iterations =  3.1

     total cpu time spent up to now is       30.6 secs

     total energy              =     -17.05082494 Ry
     estimated scf accuracy    <       0.00009793 Ry

     iteration #  4     ecut=    70.00 Ry     beta= 0.70
     Davidson diagonalization with overlap
     ethr =  1.22E-06,  avg # of iterations =  4.2

     total cpu time spent up to now is       31.9 secs

     total energy              =     -17.05089787 Ry
     estimated scf accuracy    <       0.00000334 Ry

     iteration #  5     ecut=    70.00 Ry     beta= 0.70
     Davidson diagonalization with overlap
     ethr =  4.18E-08,  avg # of iterations =  4.6

     total cpu time spent up to now is       33.5 secs

     total energy              =     -17.05090099 Ry
     estimated scf accuracy    <       0.00000019 Ry

     iteration #  6     ecut=    70.00 Ry     beta= 0.70
     Davidson diagonalization with overlap
     ethr =  2.40E-09,  avg # of iterations =  3.4

     total cpu time spent up to now is       35.0 secs

     total energy              =     -17.05090106 Ry
     estimated scf accuracy    <       0.00000002 Ry

     iteration #  7     ecut=    70.00 Ry     beta= 0.70
     Davidson diagonalization with overlap
     ethr =  2.61E-10,  avg # of iterations =  2.9

     total cpu time spent up to now is       36.2 secs

     End of self-consistent calculation

          k =-0.0833 0.0833 0.0833 (  2667 PWs)   bands (ev):

    -5.7561   5.3866   6.1106   6.1106

          k =-0.2500 0.2500-0.0833 (  2621 PWs)   bands (ev):

    -5.2692   3.2787   4.8359   5.9020

          k =-0.4167 0.4167-0.2500 (  2618 PWs)   bands (ev):

    -4.1491   0.4558   4.3704   5.2525

          k = 0.4167-0.4167 0.5833 (  2604 PWs)   bands (ev):

    -3.4239  -0.7235   4.4440   4.8612

          k = 0.2500-0.2500 0.4167 (  2618 PWs)   bands (ev):

    -4.5725   1.3222   4.9163   4.9543

          k = 0.0833-0.0833 0.2500 (  2643 PWs)   bands (ev):

    -5.5104   4.3092   5.4447   5.6431

          k =-0.0833 0.4167 0.0833 (  2627 PWs)   bands (ev):

    -5.0231   3.1094   4.6844   4.6977

          k =-0.2500 0.5833-0.0833 (  2613 PWs)   bands (ev):

    -4.0918   1.2428   3.3199   4.3008

          k = 0.5833-0.2500 0.7500 (  2616 PWs)   bands (ev):

    -2.9383  -0.5645   2.7090   4.0652

          k = 0.4167-0.0833 0.5833 (  2617 PWs)   bands (ev):

    -3.6856   0.5301   2.6549   4.5685

          k = 0.2500 0.0833 0.4167 (  2624 PWs)   bands (ev):

    -4.7922   2.2460   4.0374   5.2604

          k =-0.0833 0.7500 0.0833 (  2617 PWs)   bands (ev):

    -3.3664   0.4197   3.2861   3.6484

          k = 0.7500-0.0833 0.9167 (  2608 PWs)   bands (ev):

    -2.1400  -0.9430   2.4039   3.2177

          k = 0.5833 0.0833 0.7500 (  2608 PWs)   bands (ev):

    -2.5099  -0.6178   1.9049   3.7798

          k = 0.4167 0.2500 0.5833 (  2622 PWs)   bands (ev):

    -3.5664  -0.1967   3.6417   4.6731

          k =-0.0833-0.9167 0.0833 (  2604 PWs)   bands (ev):

    -2.2385  -0.9535   3.0091   3.4291

          k =-0.2500-0.7500-0.0833 (  2615 PWs)   bands (ev):

    -3.1914   0.1893   2.7413   3.5675

          k =-0.0833-0.5833 0.0833 (  2620 PWs)   bands (ev):

    -4.3033   1.8031   3.8480   4.0788

          k =-0.2500 0.2500 0.2500 (  2632 PWs)   bands (ev):

    -5.0343   2.2731   5.4857   5.4857

          k =-0.4167 0.4167 0.0833 (  2620 PWs)   bands (ev):

    -4.3392   1.3430   3.2813   5.3165

          k = 0.4167-0.4167 0.9167 (  2613 PWs)   bands (ev):

    -3.1274  -0.1140   2.1362   4.5076

          k = 0.2500-0.2500 0.7500 (  2618 PWs)   bands (ev):

    -3.0761  -0.1941   2.6355   4.0115

          k =-0.2500 0.5833 0.2500 (  2613 PWs)   bands (ev):

    -3.9042   0.5133   3.7736   4.3933

          k = 0.5833-0.2500 1.0833 (  2619 PWs)   bands (ev):

    -2.8765  -0.2149   2.2381   3.5572

          k = 0.4167-0.0833 0.9167 (  2613 PWs)   bands (ev):

    -2.0245  -0.9506   2.0592   2.8637

          k =-0.2500-1.0833 0.2500 (  2605 PWs)   bands (ev):

    -2.2385  -0.8649   1.9289   3.8127

          k =-0.4167 0.4167 0.4167 (  2602 PWs)   bands (ev):

    -3.8074  -0.3119   5.0941   5.0941

          k = 0.4167-0.4167 1.2500 (  2605 PWs)   bands (ev):

    -3.1840  -0.6106   3.2018   4.6388

     highest occupied level (ev):     6.1106

!    total energy              =     -17.05090107 Ry
     estimated scf accuracy    <          3.0E-11 Ry

     The total energy is the sum of the following terms:
     one-electron contribution =       5.01080490 Ry
     hartree contribution      =       1.07710656 Ry
     xc contribution           =      -6.22231125 Ry
     ewald contribution        =     -16.91650128 Ry

     convergence has been achieved in   7 iterations

     Forces acting on atoms (cartesian axes, Ry/au):

     atom    1 type  1   force =     0.00000000    0.00000000    0.00000000
     atom    2 type  1   force =     0.00000000    0.00000000    0.00000000

     Total force =     0.000000     Total SCF correction =     0.000000

     Writing all to output data dir /fastscratch/tsievers/QE_TMP_DIR/si_ph_bench_nk_ompi_14_n_procs_28_1.save/

     init_run     :      0.43s CPU      1.18s WALL (       1 calls)
     electrons    :      3.26s CPU     10.43s WALL (       1 calls)
     forces       :      0.11s CPU      0.29s WALL (       1 calls)

     Called by init_run:
     wfcinit      :      0.06s CPU      0.22s WALL (       1 calls)
     potinit      :      0.03s CPU      0.13s WALL (       1 calls)
     hinit0       :      0.22s CPU      0.47s WALL (       1 calls)

     Called by electrons:
     c_bands      :      1.29s CPU      3.90s WALL (       8 calls)
     sum_band     :      0.91s CPU      3.00s WALL (       8 calls)
     v_of_rho     :      0.12s CPU      0.37s WALL (       8 calls)
     mix_rho      :      0.02s CPU      0.06s WALL (       8 calls)

     Called by c_bands:
     init_us_2    :      0.01s CPU      0.02s WALL (      36 calls)
     init_us_2:cp :      0.01s CPU      0.02s WALL (      36 calls)
     cegterg      :      0.32s CPU      0.90s WALL (      16 calls)

     Called by *egterg:
     cdiaghg      :      0.00s CPU      0.00s WALL (      71 calls)
     h_psi        :      0.32s CPU      0.91s WALL (      75 calls)
     g_psi        :      0.00s CPU      0.00s WALL (      57 calls)

     Called by h_psi:
     h_psi:calbec :      0.02s CPU      0.05s WALL (      75 calls)
     vloc_psi     :      0.28s CPU      0.85s WALL (      75 calls)
     add_vuspsi   :      0.01s CPU      0.01s WALL (      75 calls)

     General routines
     calbec       :      0.03s CPU      0.05s WALL (      83 calls)
     fft          :      0.18s CPU      0.43s WALL (      28 calls)
     ffts         :      0.05s CPU      0.19s WALL (       8 calls)
     fftw         :      0.31s CPU      0.95s WALL (     530 calls)

     Parallel routines

     PWSCF        :     11.48s CPU     37.45s WALL


   This run was terminated on:  11:36:39  30Apr2022            

=------------------------------------------------------------------------------=
   JOB DONE.
=------------------------------------------------------------------------------=

     Program PHONON v.7.0 starts on 30Apr2022 at 11:36:43 

     This program is part of the open-source Quantum ESPRESSO suite
     for quantum simulation of materials; please cite
         "P. Giannozzi et al., J. Phys.:Condens. Matter 21 395502 (2009);
         "P. Giannozzi et al., J. Phys.:Condens. Matter 29 465901 (2017);
         "P. Giannozzi et al., J. Chem. Phys. 152 154105 (2020);
          URL http://www.quantum-espresso.org", 
     in publications or presentations arising from this work. More details at
     http://www.quantum-espresso.org/quote

     Parallel version (MPI), running on    28 processors

     MPI processes distributed on     2 nodes
     K-points division:     npool     =      14
     R & G space division:  proc/nbgrp/npool/nimage =       2
     48720 MiB available memory on the printing compute node when the environment starts

     Reading input from in_files/si_ph_bench_nk_ompi_14_n_procs_28_1.ph
      Title line not specified: using 'default'.

     Reading xml data from directory:

     /fastscratch/tsievers/QE_TMP_DIR/si_ph_bench_nk_ompi_14_n_procs_28_1.save/

     IMPORTANT: XC functional enforced from input :
     Exchange-correlation= PW
                           (   1   4   0   0   0   0   0)
     Any further DFT definition will be discarded
     Please, verify this is what you really want


     Parallelization info
     --------------------
     sticks:   dense  smooth     PW     G-vecs:    dense   smooth      PW
     Min         501     501    150                10436    10436    1738
     Max         502     502    151                10439    10439    1741
     Sum        1003    1003    301                20875    20875    3479

     Using Slab Decomposition

     Reading collected, re-writing distributed wavefunctions


     Dynamical matrices for ( 6, 6, 6)  uniform grid of q-points
     (  16 q-points):
       N         xq(1)         xq(2)         xq(3) 
       1   0.000000000   0.000000000   0.000000000
       2  -0.166666667   0.166666667  -0.166666667
       3  -0.333333333   0.333333333  -0.333333333
       4   0.500000000  -0.500000000   0.500000000
       5   0.000000000   0.333333333   0.000000000
       6  -0.166666667   0.500000000  -0.166666667
       7   0.666666667  -0.333333333   0.666666667
       8   0.500000000  -0.166666667   0.500000000
       9   0.333333333   0.000000000   0.333333333
      10   0.000000000   0.666666667   0.000000000
      11   0.833333333  -0.166666667   0.833333333
      12   0.666666667  -0.000000000   0.666666667
      13   0.000000000  -1.000000000   0.000000000
      14   0.666666667  -0.333333333   1.000000000
      15   0.500000000  -0.166666667   0.833333333
      16  -0.333333333  -1.000000000   0.000000000

     Calculation of q =    0.0000000   0.0000000   0.0000000

     default                                                                    

     bravais-lattice index     =            2
     lattice parameter (alat)  =      10.1899  a.u.
     unit-cell volume          =     264.5151 (a.u.)^3
     number of atoms/cell      =            2
     number of atomic types    =            1
     kinetic-energy cut-off    =      70.0000  Ry
     charge density cut-off    =     280.0000  Ry
     convergence threshold     =      1.0E-15
     beta                      =       0.7000
     number of iterations used =            4
     Exchange-correlation= PW
                           (   1   4   0   0   0   0   0)


     celldm(1)=   10.18990  celldm(2)=    0.00000  celldm(3)=    0.00000
     celldm(4)=    0.00000  celldm(5)=    0.00000  celldm(6)=    0.00000

     crystal axes: (cart. coord. in units of alat)
               a(1) = ( -0.5000  0.0000  0.5000 )  
               a(2) = (  0.0000  0.5000  0.5000 )  
               a(3) = ( -0.5000  0.5000  0.0000 )  

     reciprocal axes: (cart. coord. in units 2 pi/alat)
               b(1) = ( -1.0000 -1.0000  1.0000 )  
               b(2) = (  1.0000  1.0000  1.0000 )  
               b(3) = ( -1.0000  1.0000 -1.0000 )  


     Atoms inside the unit cell: 

     Cartesian axes

     site n.  atom      mass           positions (alat units)
        1     Si  28.0855   tau(    1) = (    0.00000    0.00000    0.00000  )
        2     Si  28.0855   tau(    2) = (   -0.25000    0.25000    0.25000  )

     Computing dynamical matrix for 
                    q = (   0.0000000   0.0000000   0.0000000 )

     49 Sym.Ops. (with q -> -q+G )


     G cutoff =  736.4420  (  10439 G-vectors)     FFT grid: ( 40, 40, 40)
     number of k points=    28

     PseudoPot. # 1 for Si read from file:
     ./pseudos/Si.nc.UPF
     MD5 check sum: 9e2d726316af3d4752eea8ab0afbb951
     Pseudo is Norm-conserving + core correction, Zval =  4.0
     Generated using ONCVPSP code by D. R. Hamann
     Using radial grid of 1510 points,  6 beta functions with: 
                l(1) =   0
                l(2) =   0
                l(3) =   1
                l(4) =   1
                l(5) =   2
                l(6) =   2

     Mode symmetry, O_h (m-3m)  point group:


     Electric field:
     Dielectric constant
     Born effective charges in two ways 


     Atomic displacements:
     There are    2 irreducible representations

     Representation     1      3 modes -  To be done

     Representation     2      3 modes -  To be done



     Alpha used in Ewald sum =   2.8000
     PHONON       :     44.50s CPU   2m30.54s WALL


     Electric Fields Calculation

      iter #   1 total cpu time :   154.9 secs   av.it.:   6.5
      thresh= 1.000E-02 alpha_mix =  0.700 |ddv_scf|^2 =  1.151E-07

      iter #   2 total cpu time :   160.7 secs   av.it.:  11.6
      thresh= 3.392E-05 alpha_mix =  0.700 |ddv_scf|^2 =  4.931E-09

      iter #   3 total cpu time :   165.2 secs   av.it.:  11.5
      thresh= 7.022E-06 alpha_mix =  0.700 |ddv_scf|^2 =  5.558E-11

      iter #   4 total cpu time :   169.5 secs   av.it.:  11.8
      thresh= 7.455E-07 alpha_mix =  0.700 |ddv_scf|^2 =  3.297E-13

      iter #   5 total cpu time :   173.0 secs   av.it.:  10.8
      thresh= 5.742E-08 alpha_mix =  0.700 |ddv_scf|^2 =  1.210E-16

     End of electric fields calculation

          Dielectric constant in cartesian axis 

          (      13.312075602       0.000000000       0.000000000 )
          (       0.000000000      13.312075602       0.000000000 )
          (       0.000000000      -0.000000000      13.312075602 )

          Effective charges (d Force / dE) in cartesian axis without acoustic sum rule applied (asr)

           atom      1   Si Mean Z*:       -0.00677
      Ex  (       -0.00677       -0.00000       -0.00000 )
      Ey  (       -0.00000       -0.00677        0.00000 )
      Ez  (       -0.00000        0.00000       -0.00677 )
           atom      2   Si Mean Z*:       -0.00677
      Ex  (       -0.00677       -0.00000       -0.00000 )
      Ey  (       -0.00000       -0.00677        0.00000 )
      Ez  (       -0.00000        0.00000       -0.00677 )

          Effective charges Sum: Mean:       -0.01353
             -0.01353       -0.00000       -0.00000
             -0.00000       -0.01353        0.00000
             -0.00000        0.00000       -0.01353

          Effective charges (d Force / dE) in cartesian axis with asr applied: 
           atom      1   Si Mean Z*:        0.00000
      E*x (        0.00000       -0.00000        0.00000 )
      E*y (        0.00000        0.00000        0.00000 )
      E*z (       -0.00000        0.00000        0.00000 )
           atom      2   Si Mean Z*:       -0.00000
      E*x (        0.00000        0.00000       -0.00000 )
      E*y (       -0.00000       -0.00000       -0.00000 )
      E*z (        0.00000       -0.00000       -0.00000 )


     Representation #   1 modes #   1   2   3

     Self-consistent Calculation

      iter #   1 total cpu time :   178.1 secs   av.it.:   6.0
      thresh= 1.000E-02 alpha_mix =  0.700 |ddv_scf|^2 =  1.658E-08

      iter #   2 total cpu time :   183.4 secs   av.it.:  11.7
      thresh= 1.288E-05 alpha_mix =  0.700 |ddv_scf|^2 =  3.722E-10

      iter #   3 total cpu time :   188.3 secs   av.it.:  11.7
      thresh= 1.929E-06 alpha_mix =  0.700 |ddv_scf|^2 =  1.391E-11

      iter #   4 total cpu time :   193.4 secs   av.it.:  11.5
      thresh= 3.730E-07 alpha_mix =  0.700 |ddv_scf|^2 =  4.501E-14

      iter #   5 total cpu time :   197.5 secs   av.it.:  11.9
      thresh= 2.122E-08 alpha_mix =  0.700 |ddv_scf|^2 =  2.114E-16

     End of self-consistent calculation

     Convergence has been achieved 


     Representation #   2 modes #   4   5   6

     Self-consistent Calculation

      iter #   1 total cpu time :   203.0 secs   av.it.:   5.9
      thresh= 1.000E-02 alpha_mix =  0.700 |ddv_scf|^2 =  1.198E-08

      iter #   2 total cpu time :   209.2 secs   av.it.:  11.8
      thresh= 1.094E-05 alpha_mix =  0.700 |ddv_scf|^2 =  4.319E-10

      iter #   3 total cpu time :   213.9 secs   av.it.:  11.7
      thresh= 2.078E-06 alpha_mix =  0.700 |ddv_scf|^2 =  1.961E-11

      iter #   4 total cpu time :   219.8 secs   av.it.:  11.7
      thresh= 4.428E-07 alpha_mix =  0.700 |ddv_scf|^2 =  3.505E-14

      iter #   5 total cpu time :   223.0 secs   av.it.:  11.9
      thresh= 1.872E-08 alpha_mix =  0.700 |ddv_scf|^2 =  8.337E-17

     End of self-consistent calculation

     Convergence has been achieved 

     Number of q in the star =    1
     List of q in the star:
          1   0.000000000   0.000000000   0.000000000

          Dielectric constant in cartesian axis 

          (      13.312075602       0.000000000       0.000000000 )
          (       0.000000000      13.312075602       0.000000000 )
          (       0.000000000      -0.000000000      13.312075602 )

          Effective charges (d Force / dE) in cartesian axis without acoustic sum rule applied (asr)

           atom      1   Si Mean Z*:       -0.00677
      Ex  (       -0.00677       -0.00000       -0.00000 )
      Ey  (       -0.00000       -0.00677        0.00000 )
      Ez  (       -0.00000        0.00000       -0.00677 )
           atom      2   Si Mean Z*:       -0.00677
      Ex  (       -0.00677       -0.00000       -0.00000 )
      Ey  (       -0.00000       -0.00677        0.00000 )
      Ez  (       -0.00000        0.00000       -0.00677 )

          Effective charges Sum: Mean:       -0.01353
             -0.01353       -0.00000       -0.00000
             -0.00000       -0.01353        0.00000
             -0.00000        0.00000       -0.01353

          Effective charges (d Force / dE) in cartesian axis with asr applied: 
           atom      1   Si Mean Z*:        0.00000
      E*x (        0.00000       -0.00000        0.00000 )
      E*y (        0.00000        0.00000        0.00000 )
      E*z (       -0.00000        0.00000        0.00000 )
           atom      2   Si Mean Z*:       -0.00000
      E*x (        0.00000        0.00000       -0.00000 )
      E*y (       -0.00000       -0.00000       -0.00000 )
      E*z (        0.00000       -0.00000       -0.00000 )

          Effective charges (d P / du) in cartesian axis 

           atom      1   Si 
      Px  (       -0.00683        0.00000        0.00000 )
      Py  (        0.00000       -0.00683        0.00000 )
      Pz  (        0.00000       -0.00000       -0.00683 )
           atom      2   Si 
      Px  (       -0.00683        0.00000        0.00000 )
      Py  (        0.00000       -0.00683        0.00000 )
      Pz  (        0.00000        0.00000       -0.00683 )

     Diagonalizing the dynamical matrix

     q = (    0.000000000   0.000000000   0.000000000 ) 

 **************************************************************************
     freq (    1) =      -0.109540 [THz] =      -3.653866 [cm-1]
     freq (    2) =      -0.109540 [THz] =      -3.653866 [cm-1]
     freq (    3) =      -0.109540 [THz] =      -3.653866 [cm-1]
     freq (    4) =      15.412117 [THz] =     514.092879 [cm-1]
     freq (    5) =      15.412117 [THz] =     514.092879 [cm-1]
     freq (    6) =      15.412117 [THz] =     514.092879 [cm-1]
 **************************************************************************

     Mode symmetry, O_h (m-3m)  point group:

     freq (   1-   3) =         -3.7  [cm-1]   --> T_1u G_15  G_4- I  
     freq (   4-   6) =        514.1  [cm-1]   --> T_2g G_25' G_5+ R  

     Calculation of q =   -0.1666667   0.1666667  -0.1666667

     Subspace diagonalization in iterative solution of the eigenvalue problem:
     a serial algorithm will be used


     Parallelization info
     --------------------
     sticks:   dense  smooth     PW     G-vecs:    dense   smooth      PW
     Min         501     501    156                10436    10436    1847
     Max         502     502    157                10439    10439    1848
     Sum        1003    1003    313                20875    20875    3695

     Using Slab Decomposition


     Title: 
     default                                                                    


     bravais-lattice index     =            2
     lattice parameter (alat)  =      10.1899  a.u.
     unit-cell volume          =     264.5151 (a.u.)^3
     number of atoms/cell      =            2
     number of atomic types    =            1
     number of electrons       =         8.00
     number of Kohn-Sham states=            4
     kinetic-energy cutoff     =      70.0000  Ry
     charge density cutoff     =     280.0000  Ry
     Exchange-correlation= PW
                           (   1   4   0   0   0   0   0)

     celldm(1)=  10.189905  celldm(2)=   0.000000  celldm(3)=   0.000000
     celldm(4)=   0.000000  celldm(5)=   0.000000  celldm(6)=   0.000000

     crystal axes: (cart. coord. in units of alat)
               a(1) = (  -0.500000   0.000000   0.500000 )  
               a(2) = (   0.000000   0.500000   0.500000 )  
               a(3) = (  -0.500000   0.500000   0.000000 )  

     reciprocal axes: (cart. coord. in units 2 pi/alat)
               b(1) = ( -1.000000 -1.000000  1.000000 )  
               b(2) = (  1.000000  1.000000  1.000000 )  
               b(3) = ( -1.000000  1.000000 -1.000000 )  


     PseudoPot. # 1 for Si read from file:
     ./pseudos/Si.nc.UPF
     MD5 check sum: 9e2d726316af3d4752eea8ab0afbb951
     Pseudo is Norm-conserving + core correction, Zval =  4.0
     Generated using ONCVPSP code by D. R. Hamann
     Using radial grid of 1510 points,  6 beta functions with: 
                l(1) =   0
                l(2) =   0
                l(3) =   1
                l(4) =   1
                l(5) =   2
                l(6) =   2

     atomic species   valence    mass     pseudopotential
        Si             4.00    28.08550     Si( 1.00)

     48 Sym. Ops., with inversion, found



   Cartesian axes

     site n.     atom                  positions (alat units)
         1           Si  tau(   1) = (   0.0000000   0.0000000   0.0000000  )
         2           Si  tau(   2) = (  -0.2500000   0.2500000   0.2500000  )

     number of k points=   364

     Number of k-points >= 100: set verbosity='high' to print them.

     Dense  grid:    20875 G-vectors     FFT dimensions: (  40,  40,  40)

     Estimated max dynamical RAM per process >       6.40 MB

     Estimated total dynamical RAM >     179.10 MB

     The potential is recalculated from file :
     /fastscratch/tsievers/QE_TMP_DIR/_ph0/si_ph_bench_nk_ompi_14_n_procs_28_1.save/charge-density

     Starting wfcs are    8 atomic wfcs

     Band Structure Calculation
     Davidson diagonalization with overlap

     ethr =  1.25E-10,  avg # of iterations = 12.9

     total cpu time spent up to now is       13.9 secs

     End of band structure calculation

     Number of k-points >= 100: set verbosity='high' to print the bands.

     highest occupied level (ev):     6.1106

     Writing config to output data dir /fastscratch/tsievers/QE_TMP_DIR/_ph0/si_ph_bench_nk_ompi_14_n_procs_28_1.save/

     default                                                                    

     bravais-lattice index     =            2
     lattice parameter (alat)  =      10.1899  a.u.
     unit-cell volume          =     264.5151 (a.u.)^3
     number of atoms/cell      =            2
     number of atomic types    =            1
     kinetic-energy cut-off    =      70.0000  Ry
     charge density cut-off    =     280.0000  Ry
     convergence threshold     =      1.0E-15
     beta                      =       0.7000
     number of iterations used =            4
     Exchange-correlation= PW
                           (   1   4   0   0   0   0   0)


     celldm(1)=   10.18990  celldm(2)=    0.00000  celldm(3)=    0.00000
     celldm(4)=    0.00000  celldm(5)=    0.00000  celldm(6)=    0.00000

     crystal axes: (cart. coord. in units of alat)
               a(1) = ( -0.5000  0.0000  0.5000 )  
               a(2) = (  0.0000  0.5000  0.5000 )  
               a(3) = ( -0.5000  0.5000  0.0000 )  

     reciprocal axes: (cart. coord. in units 2 pi/alat)
               b(1) = ( -1.0000 -1.0000  1.0000 )  
               b(2) = (  1.0000  1.0000  1.0000 )  
               b(3) = ( -1.0000  1.0000 -1.0000 )  


     Atoms inside the unit cell: 

     Cartesian axes

     site n.  atom      mass           positions (alat units)
        1     Si  28.0855   tau(    1) = (    0.00000    0.00000    0.00000  )
        2     Si  28.0855   tau(    2) = (   -0.25000    0.25000    0.25000  )

     Computing dynamical matrix for 
                    q = (  -0.1666667   0.1666667  -0.1666667 )

      6 Sym.Ops. (no q -> -q+G )


     G cutoff =  736.4420  (  10439 G-vectors)     FFT grid: ( 40, 40, 40)
     number of k points=   364

     PseudoPot. # 1 for Si read from file:
     ./pseudos/Si.nc.UPF
     MD5 check sum: 9e2d726316af3d4752eea8ab0afbb951
     Pseudo is Norm-conserving + core correction, Zval =  4.0
     Generated using ONCVPSP code by D. R. Hamann
     Using radial grid of 1510 points,  6 beta functions with: 
                l(1) =   0
                l(2) =   0
                l(3) =   1
                l(4) =   1
                l(5) =   2
                l(6) =   2

     Mode symmetry, C_3v (3m)   point group:


     Atomic displacements:
     There are    4 irreducible representations

     Representation     1      1 modes -  To be done

     Representation     2      1 modes -  To be done

     Representation     3      2 modes -  To be done

     Representation     4      2 modes -  To be done



     Alpha used in Ewald sum =   2.8000
     PHONON       :   1m12.27s CPU   4m 5.33s WALL



     Representation #   1 mode #   1

     Self-consistent Calculation

      iter #   1 total cpu time :   249.0 secs   av.it.:   6.6
      thresh= 1.000E-02 alpha_mix =  0.700 |ddv_scf|^2 =  1.552E-03

      iter #   2 total cpu time :   252.7 secs   av.it.:   8.8
      thresh= 3.939E-03 alpha_mix =  0.700 |ddv_scf|^2 =  5.085E-02

      iter #   3 total cpu time :   256.6 secs   av.it.:   7.6
      thresh= 1.000E-02 alpha_mix =  0.700 |ddv_scf|^2 =  4.137E-07

      iter #   4 total cpu time :   261.1 secs   av.it.:   9.1
      thresh= 6.432E-05 alpha_mix =  0.700 |ddv_scf|^2 =  1.352E-08

      iter #   5 total cpu time :   266.5 secs   av.it.:   9.4
      thresh= 1.163E-05 alpha_mix =  0.700 |ddv_scf|^2 =  9.382E-10

      iter #   6 total cpu time :   270.5 secs   av.it.:   8.2
      thresh= 3.063E-06 alpha_mix =  0.700 |ddv_scf|^2 =  1.579E-09

      iter #   7 total cpu time :   279.4 secs   av.it.:   8.0
      thresh= 3.974E-06 alpha_mix =  0.700 |ddv_scf|^2 =  9.311E-11

      iter #   8 total cpu time :   284.7 secs   av.it.:   8.4
      thresh= 9.649E-07 alpha_mix =  0.700 |ddv_scf|^2 =  7.452E-13

      iter #   9 total cpu time :   289.2 secs   av.it.:   8.2
      thresh= 8.633E-08 alpha_mix =  0.700 |ddv_scf|^2 =  1.676E-14

      iter #  10 total cpu time :   292.9 secs   av.it.:   8.5
      thresh= 1.295E-08 alpha_mix =  0.700 |ddv_scf|^2 =  1.574E-15

      iter #  11 total cpu time :   296.4 secs   av.it.:   9.0
      thresh= 3.968E-09 alpha_mix =  0.700 |ddv_scf|^2 =  2.362E-16

     End of self-consistent calculation

     Convergence has been achieved 


     Representation #   2 mode #   2

     Self-consistent Calculation

      iter #   1 total cpu time :   301.3 secs   av.it.:   6.6
      thresh= 1.000E-02 alpha_mix =  0.700 |ddv_scf|^2 =  1.552E-03

      iter #   2 total cpu time :   305.8 secs   av.it.:   8.8
      thresh= 3.939E-03 alpha_mix =  0.700 |ddv_scf|^2 =  5.085E-02

      iter #   3 total cpu time :   309.6 secs   av.it.:   7.6
      thresh= 1.000E-02 alpha_mix =  0.700 |ddv_scf|^2 =  4.137E-07

      iter #   4 total cpu time :   313.8 secs   av.it.:   9.1
      thresh= 6.432E-05 alpha_mix =  0.700 |ddv_scf|^2 =  1.352E-08

      iter #   5 total cpu time :   318.8 secs   av.it.:   9.4
      thresh= 1.163E-05 alpha_mix =  0.700 |ddv_scf|^2 =  9.383E-10

      iter #   6 total cpu time :   322.9 secs   av.it.:   8.2
      thresh= 3.063E-06 alpha_mix =  0.700 |ddv_scf|^2 =  1.579E-09

      iter #   7 total cpu time :   328.0 secs   av.it.:   8.0
      thresh= 3.974E-06 alpha_mix =  0.700 |ddv_scf|^2 =  9.311E-11

      iter #   8 total cpu time :   334.2 secs   av.it.:   8.4
      thresh= 9.649E-07 alpha_mix =  0.700 |ddv_scf|^2 =  7.453E-13

      iter #   9 total cpu time :   338.6 secs   av.it.:   8.2
      thresh= 8.633E-08 alpha_mix =  0.700 |ddv_scf|^2 =  1.676E-14

      iter #  10 total cpu time :   342.9 secs   av.it.:   8.5
      thresh= 1.295E-08 alpha_mix =  0.700 |ddv_scf|^2 =  1.574E-15

      iter #  11 total cpu time :   346.9 secs   av.it.:   9.0
      thresh= 3.968E-09 alpha_mix =  0.700 |ddv_scf|^2 =  2.361E-16

     End of self-consistent calculation

     Convergence has been achieved 


     Representation #   3 modes #   3   4

     Self-consistent Calculation

      iter #   1 total cpu time :   354.5 secs   av.it.:   6.1
      thresh= 1.000E-02 alpha_mix =  0.700 |ddv_scf|^2 =  4.048E-08

      iter #   2 total cpu time :   363.6 secs   av.it.:  11.4
      thresh= 2.012E-05 alpha_mix =  0.700 |ddv_scf|^2 =  1.801E-09

      iter #   3 total cpu time :   373.1 secs   av.it.:  11.3
      thresh= 4.244E-06 alpha_mix =  0.700 |ddv_scf|^2 =  4.704E-11

      iter #   4 total cpu time :   382.9 secs   av.it.:  11.4
      thresh= 6.859E-07 alpha_mix =  0.700 |ddv_scf|^2 =  5.431E-13

      iter #   5 total cpu time :   393.9 secs   av.it.:  11.4
      thresh= 7.370E-08 alpha_mix =  0.700 |ddv_scf|^2 =  1.155E-14

      iter #   6 total cpu time :   403.8 secs   av.it.:  11.6
      thresh= 1.075E-08 alpha_mix =  0.700 |ddv_scf|^2 =  5.234E-17

     End of self-consistent calculation

     Convergence has been achieved 


     Representation #   4 modes #   5   6

     Self-consistent Calculation

      iter #   1 total cpu time :   411.4 secs   av.it.:   5.9
      thresh= 1.000E-02 alpha_mix =  0.700 |ddv_scf|^2 =  4.048E-08

      iter #   2 total cpu time :   422.2 secs   av.it.:  11.1
      thresh= 2.012E-05 alpha_mix =  0.700 |ddv_scf|^2 =  1.800E-09

      iter #   3 total cpu time :   437.5 secs   av.it.:  11.0
      thresh= 4.243E-06 alpha_mix =  0.700 |ddv_scf|^2 =  4.704E-11

      iter #   4 total cpu time :   447.2 secs   av.it.:  11.1
      thresh= 6.859E-07 alpha_mix =  0.700 |ddv_scf|^2 =  5.429E-13

      iter #   5 total cpu time :   455.7 secs   av.it.:  11.1
      thresh= 7.368E-08 alpha_mix =  0.700 |ddv_scf|^2 =  1.154E-14

      iter #   6 total cpu time :   463.0 secs   av.it.:  11.4
      thresh= 1.074E-08 alpha_mix =  0.700 |ddv_scf|^2 =  5.250E-17

     End of self-consistent calculation

     Convergence has been achieved 

     Number of q in the star =    8
     List of q in the star:
          1  -0.166666667   0.166666667  -0.166666667
          2   0.166666667   0.166666667   0.166666667
          3  -0.166666667  -0.166666667  -0.166666667
          4   0.166666667  -0.166666667   0.166666667
          5   0.166666667  -0.166666667  -0.166666667
          6   0.166666667   0.166666667  -0.166666667
          7  -0.166666667  -0.166666667   0.166666667
          8  -0.166666667   0.166666667   0.166666667

     Diagonalizing the dynamical matrix

     q = (   -0.166666667   0.166666667  -0.166666667 ) 

 **************************************************************************
     freq (    1) =       2.202753 [THz] =      73.475918 [cm-1]
     freq (    2) =       2.202753 [THz] =      73.475918 [cm-1]
     freq (    3) =       4.748093 [THz] =     158.379334 [cm-1]
     freq (    4) =      15.023910 [THz] =     501.143706 [cm-1]
     freq (    5) =      15.065889 [THz] =     502.543972 [cm-1]
     freq (    6) =      15.065889 [THz] =     502.543972 [cm-1]
 **************************************************************************

     Mode symmetry, C_3v (3m)   point group:

     freq (   1-   2) =         73.5  [cm-1]   --> E    L_3           
     freq (   3-   3) =        158.4  [cm-1]   --> A_1  L_1           
     freq (   4-   4) =        501.1  [cm-1]   --> A_1  L_1           
     freq (   5-   6) =        502.5  [cm-1]   --> E    L_3           

     Calculation of q =   -0.3333333   0.3333333  -0.3333333

     Parallelization info
     --------------------
     sticks:   dense  smooth     PW     G-vecs:    dense   smooth      PW
     Min         501     501    156                10436    10436    1917
     Max         502     502    157                10439    10439    1922
     Sum        1003    1003    313                20875    20875    3839

     Using Slab Decomposition


     Title: 
     default                                                                    


     bravais-lattice index     =            2
     lattice parameter (alat)  =      10.1899  a.u.
     unit-cell volume          =     264.5151 (a.u.)^3
     number of atoms/cell      =            2
     number of atomic types    =            1
     number of electrons       =         8.00
     number of Kohn-Sham states=            4
     kinetic-energy cutoff     =      70.0000  Ry
     charge density cutoff     =     280.0000  Ry
     Exchange-correlation= PW
                           (   1   4   0   0   0   0   0)

     celldm(1)=  10.189905  celldm(2)=   0.000000  celldm(3)=   0.000000
     celldm(4)=   0.000000  celldm(5)=   0.000000  celldm(6)=   0.000000

     crystal axes: (cart. coord. in units of alat)
               a(1) = (  -0.500000   0.000000   0.500000 )  
               a(2) = (   0.000000   0.500000   0.500000 )  
               a(3) = (  -0.500000   0.500000   0.000000 )  

     reciprocal axes: (cart. coord. in units 2 pi/alat)
               b(1) = ( -1.000000 -1.000000  1.000000 )  
               b(2) = (  1.000000  1.000000  1.000000 )  
               b(3) = ( -1.000000  1.000000 -1.000000 )  


     PseudoPot. # 1 for Si read from file:
     ./pseudos/Si.nc.UPF
     MD5 check sum: 9e2d726316af3d4752eea8ab0afbb951
     Pseudo is Norm-conserving + core correction, Zval =  4.0
     Generated using ONCVPSP code by D. R. Hamann
     Using radial grid of 1510 points,  6 beta functions with: 
                l(1) =   0
                l(2) =   0
                l(3) =   1
                l(4) =   1
                l(5) =   2
                l(6) =   2

     atomic species   valence    mass     pseudopotential
        Si             4.00    28.08550     Si( 1.00)

     48 Sym. Ops., with inversion, found



   Cartesian axes

     site n.     atom                  positions (alat units)
         1           Si  tau(   1) = (   0.0000000   0.0000000   0.0000000  )
         2           Si  tau(   2) = (  -0.2500000   0.2500000   0.2500000  )

     number of k points=   364

     Number of k-points >= 100: set verbosity='high' to print them.

     Dense  grid:    20875 G-vectors     FFT dimensions: (  40,  40,  40)

     Estimated max dynamical RAM per process >       6.41 MB

     Estimated total dynamical RAM >     179.48 MB

     The potential is recalculated from file :
     /fastscratch/tsievers/QE_TMP_DIR/_ph0/si_ph_bench_nk_ompi_14_n_procs_28_1.save/charge-density

     Starting wfcs are    8 atomic wfcs

     Band Structure Calculation
     Davidson diagonalization with overlap

     ethr =  1.25E-10,  avg # of iterations = 12.9

     total cpu time spent up to now is       28.0 secs

     End of band structure calculation

     Number of k-points >= 100: set verbosity='high' to print the bands.

     highest occupied level (ev):     6.1106

     Writing config to output data dir /fastscratch/tsievers/QE_TMP_DIR/_ph0/si_ph_bench_nk_ompi_14_n_procs_28_1.save/

     default                                                                    

     bravais-lattice index     =            2
     lattice parameter (alat)  =      10.1899  a.u.
     unit-cell volume          =     264.5151 (a.u.)^3
     number of atoms/cell      =            2
     number of atomic types    =            1
     kinetic-energy cut-off    =      70.0000  Ry
     charge density cut-off    =     280.0000  Ry
     convergence threshold     =      1.0E-15
     beta                      =       0.7000
     number of iterations used =            4
     Exchange-correlation= PW
                           (   1   4   0   0   0   0   0)


     celldm(1)=   10.18990  celldm(2)=    0.00000  celldm(3)=    0.00000
     celldm(4)=    0.00000  celldm(5)=    0.00000  celldm(6)=    0.00000

     crystal axes: (cart. coord. in units of alat)
               a(1) = ( -0.5000  0.0000  0.5000 )  
               a(2) = (  0.0000  0.5000  0.5000 )  
               a(3) = ( -0.5000  0.5000  0.0000 )  

     reciprocal axes: (cart. coord. in units 2 pi/alat)
               b(1) = ( -1.0000 -1.0000  1.0000 )  
               b(2) = (  1.0000  1.0000  1.0000 )  
               b(3) = ( -1.0000  1.0000 -1.0000 )  


     Atoms inside the unit cell: 

     Cartesian axes

     site n.  atom      mass           positions (alat units)
        1     Si  28.0855   tau(    1) = (    0.00000    0.00000    0.00000  )
        2     Si  28.0855   tau(    2) = (   -0.25000    0.25000    0.25000  )

     Computing dynamical matrix for 
                    q = (  -0.3333333   0.3333333  -0.3333333 )

      6 Sym.Ops. (no q -> -q+G )


     G cutoff =  736.4420  (  10439 G-vectors)     FFT grid: ( 40, 40, 40)
     number of k points=   364

     PseudoPot. # 1 for Si read from file:
     ./pseudos/Si.nc.UPF
     MD5 check sum: 9e2d726316af3d4752eea8ab0afbb951
     Pseudo is Norm-conserving + core correction, Zval =  4.0
     Generated using ONCVPSP code by D. R. Hamann
     Using radial grid of 1510 points,  6 beta functions with: 
                l(1) =   0
                l(2) =   0
                l(3) =   1
                l(4) =   1
                l(5) =   2
                l(6) =   2

     Mode symmetry, C_3v (3m)   point group:


     Atomic displacements:
     There are    4 irreducible representations

     Representation     1      1 modes -  To be done

     Representation     2      1 modes -  To be done

     Representation     3      2 modes -  To be done

     Representation     4      2 modes -  To be done



     Alpha used in Ewald sum =   2.8000
     PHONON       :   2m25.79s CPU   8m 4.46s WALL



     Representation #   1 mode #   1

     Self-consistent Calculation

      iter #   1 total cpu time :   487.3 secs   av.it.:   6.5
      thresh= 1.000E-02 alpha_mix =  0.700 |ddv_scf|^2 =  9.826E-05

      iter #   2 total cpu time :   491.7 secs   av.it.:   9.7
      thresh= 9.913E-04 alpha_mix =  0.700 |ddv_scf|^2 =  7.842E-04

      iter #   3 total cpu time :   495.8 secs   av.it.:   8.3
      thresh= 2.800E-03 alpha_mix =  0.700 |ddv_scf|^2 =  1.444E-07

      iter #   4 total cpu time :   500.0 secs   av.it.:   9.8
      thresh= 3.799E-05 alpha_mix =  0.700 |ddv_scf|^2 =  2.930E-09

      iter #   5 total cpu time :   505.1 secs   av.it.:   9.8
      thresh= 5.413E-06 alpha_mix =  0.700 |ddv_scf|^2 =  3.097E-11

      iter #   6 total cpu time :   509.8 secs   av.it.:  10.4
      thresh= 5.565E-07 alpha_mix =  0.700 |ddv_scf|^2 =  3.142E-12

      iter #   7 total cpu time :   514.9 secs   av.it.:  10.3
      thresh= 1.773E-07 alpha_mix =  0.700 |ddv_scf|^2 =  2.046E-12

      iter #   8 total cpu time :   520.3 secs   av.it.:   9.4
      thresh= 1.431E-07 alpha_mix =  0.700 |ddv_scf|^2 =  2.461E-12

      iter #   9 total cpu time :   525.2 secs   av.it.:   8.9
      thresh= 1.569E-07 alpha_mix =  0.700 |ddv_scf|^2 =  2.976E-13

      iter #  10 total cpu time :   529.4 secs   av.it.:   8.9
      thresh= 5.455E-08 alpha_mix =  0.700 |ddv_scf|^2 =  1.738E-15

      iter #  11 total cpu time :   536.3 secs   av.it.:   9.6
      thresh= 4.169E-09 alpha_mix =  0.700 |ddv_scf|^2 =  1.670E-16

     End of self-consistent calculation

     Convergence has been achieved 


     Representation #   2 mode #   2

     Self-consistent Calculation

      iter #   1 total cpu time :   542.9 secs   av.it.:   6.5
      thresh= 1.000E-02 alpha_mix =  0.700 |ddv_scf|^2 =  9.826E-05

      iter #   2 total cpu time :   548.2 secs   av.it.:   9.7
      thresh= 9.913E-04 alpha_mix =  0.700 |ddv_scf|^2 =  7.842E-04

      iter #   3 total cpu time :   553.2 secs   av.it.:   8.3
      thresh= 2.800E-03 alpha_mix =  0.700 |ddv_scf|^2 =  1.444E-07

      iter #   4 total cpu time :   557.8 secs   av.it.:   9.8
      thresh= 3.799E-05 alpha_mix =  0.700 |ddv_scf|^2 =  2.930E-09

      iter #   5 total cpu time :   564.5 secs   av.it.:   9.8
      thresh= 5.413E-06 alpha_mix =  0.700 |ddv_scf|^2 =  3.097E-11

      iter #   6 total cpu time :   573.2 secs   av.it.:  10.4
      thresh= 5.565E-07 alpha_mix =  0.700 |ddv_scf|^2 =  3.142E-12

      iter #   7 total cpu time :   578.7 secs   av.it.:  10.3
      thresh= 1.772E-07 alpha_mix =  0.700 |ddv_scf|^2 =  2.046E-12

      iter #   8 total cpu time :   584.1 secs   av.it.:   9.4
      thresh= 1.430E-07 alpha_mix =  0.700 |ddv_scf|^2 =  2.460E-12

      iter #   9 total cpu time :   589.3 secs   av.it.:   9.0
      thresh= 1.569E-07 alpha_mix =  0.700 |ddv_scf|^2 =  2.975E-13

      iter #  10 total cpu time :   593.3 secs   av.it.:   8.9
      thresh= 5.455E-08 alpha_mix =  0.700 |ddv_scf|^2 =  1.738E-15

      iter #  11 total cpu time :   599.1 secs   av.it.:   9.6
      thresh= 4.168E-09 alpha_mix =  0.700 |ddv_scf|^2 =  1.670E-16

     End of self-consistent calculation

     Convergence has been achieved 


     Representation #   3 modes #   3   4

     Self-consistent Calculation

      iter #   1 total cpu time :   607.2 secs   av.it.:   6.1
      thresh= 1.000E-02 alpha_mix =  0.700 |ddv_scf|^2 =  5.516E-08

      iter #   2 total cpu time :   616.8 secs   av.it.:  11.4
      thresh= 2.349E-05 alpha_mix =  0.700 |ddv_scf|^2 =  3.825E-09

      iter #   3 total cpu time :   626.6 secs   av.it.:  11.2
      thresh= 6.185E-06 alpha_mix =  0.700 |ddv_scf|^2 =  5.526E-11

      iter #   4 total cpu time :   636.7 secs   av.it.:  11.4
      thresh= 7.434E-07 alpha_mix =  0.700 |ddv_scf|^2 =  5.554E-13

      iter #   5 total cpu time :   645.2 secs   av.it.:  11.4
      thresh= 7.452E-08 alpha_mix =  0.700 |ddv_scf|^2 =  1.079E-14

      iter #   6 total cpu time :   653.3 secs   av.it.:  11.6
      thresh= 1.039E-08 alpha_mix =  0.700 |ddv_scf|^2 =  7.334E-17

     End of self-consistent calculation

     Convergence has been achieved 


     Representation #   4 modes #   5   6

     Self-consistent Calculation

      iter #   1 total cpu time :   661.0 secs   av.it.:   6.0
      thresh= 1.000E-02 alpha_mix =  0.700 |ddv_scf|^2 =  5.514E-08

      iter #   2 total cpu time :   671.0 secs   av.it.:  11.0
      thresh= 2.348E-05 alpha_mix =  0.700 |ddv_scf|^2 =  3.822E-09

      iter #   3 total cpu time :   682.9 secs   av.it.:  10.9
      thresh= 6.182E-06 alpha_mix =  0.700 |ddv_scf|^2 =  5.528E-11

      iter #   4 total cpu time :   692.1 secs   av.it.:  11.0
      thresh= 7.435E-07 alpha_mix =  0.700 |ddv_scf|^2 =  5.547E-13

      iter #   5 total cpu time :   701.4 secs   av.it.:  11.1
      thresh= 7.448E-08 alpha_mix =  0.700 |ddv_scf|^2 =  1.079E-14

      iter #   6 total cpu time :   709.7 secs   av.it.:  11.3
      thresh= 1.039E-08 alpha_mix =  0.700 |ddv_scf|^2 =  7.354E-17

     End of self-consistent calculation

     Convergence has been achieved 

     Number of q in the star =    8
     List of q in the star:
          1  -0.333333333   0.333333333  -0.333333333
          2   0.333333333   0.333333333   0.333333333
          3  -0.333333333  -0.333333333  -0.333333333
          4   0.333333333  -0.333333333   0.333333333
          5   0.333333333  -0.333333333  -0.333333333
          6   0.333333333   0.333333333  -0.333333333
          7  -0.333333333  -0.333333333   0.333333333
          8  -0.333333333   0.333333333   0.333333333

     Diagonalizing the dynamical matrix

     q = (   -0.333333333   0.333333333  -0.333333333 ) 

 **************************************************************************
     freq (    1) =       3.044109 [THz] =     101.540539 [cm-1]
     freq (    2) =       3.044109 [THz] =     101.540539 [cm-1]
     freq (    3) =       8.747644 [THz] =     291.790009 [cm-1]
     freq (    4) =      13.857032 [THz] =     462.220826 [cm-1]
     freq (    5) =      14.763301 [THz] =     492.450719 [cm-1]
     freq (    6) =      14.763301 [THz] =     492.450719 [cm-1]
 **************************************************************************

     Mode symmetry, C_3v (3m)   point group:

     freq (   1-   2) =        101.5  [cm-1]   --> E    L_3           
     freq (   3-   3) =        291.8  [cm-1]   --> A_1  L_1           
     freq (   4-   4) =        462.2  [cm-1]   --> A_1  L_1           
     freq (   5-   6) =        492.5  [cm-1]   --> E    L_3           

     Calculation of q =    0.5000000  -0.5000000   0.5000000

     Parallelization info
     --------------------
     sticks:   dense  smooth     PW     G-vecs:    dense   smooth      PW
     Min         501     501    168                10436    10436    2007
     Max         502     502    169                10439    10439    2008
     Sum        1003    1003    337                20875    20875    4015

     Using Slab Decomposition


     Title: 
     default                                                                    


     bravais-lattice index     =            2
     lattice parameter (alat)  =      10.1899  a.u.
     unit-cell volume          =     264.5151 (a.u.)^3
     number of atoms/cell      =            2
     number of atomic types    =            1
     number of electrons       =         8.00
     number of Kohn-Sham states=            4
     kinetic-energy cutoff     =      70.0000  Ry
     charge density cutoff     =     280.0000  Ry
     Exchange-correlation= PW
                           (   1   4   0   0   0   0   0)

     celldm(1)=  10.189905  celldm(2)=   0.000000  celldm(3)=   0.000000
     celldm(4)=   0.000000  celldm(5)=   0.000000  celldm(6)=   0.000000

     crystal axes: (cart. coord. in units of alat)
               a(1) = (  -0.500000   0.000000   0.500000 )  
               a(2) = (   0.000000   0.500000   0.500000 )  
               a(3) = (  -0.500000   0.500000   0.000000 )  

     reciprocal axes: (cart. coord. in units 2 pi/alat)
               b(1) = ( -1.000000 -1.000000  1.000000 )  
               b(2) = (  1.000000  1.000000  1.000000 )  
               b(3) = ( -1.000000  1.000000 -1.000000 )  


     PseudoPot. # 1 for Si read from file:
     ./pseudos/Si.nc.UPF
     MD5 check sum: 9e2d726316af3d4752eea8ab0afbb951
     Pseudo is Norm-conserving + core correction, Zval =  4.0
     Generated using ONCVPSP code by D. R. Hamann
     Using radial grid of 1510 points,  6 beta functions with: 
                l(1) =   0
                l(2) =   0
                l(3) =   1
                l(4) =   1
                l(5) =   2
                l(6) =   2

     atomic species   valence    mass     pseudopotential
        Si             4.00    28.08550     Si( 1.00)

     48 Sym. Ops., with inversion, found



   Cartesian axes

     site n.     atom                  positions (alat units)
         1           Si  tau(   1) = (   0.0000000   0.0000000   0.0000000  )
         2           Si  tau(   2) = (  -0.2500000   0.2500000   0.2500000  )

     number of k points=   182

     Number of k-points >= 100: set verbosity='high' to print them.

     Dense  grid:    20875 G-vectors     FFT dimensions: (  40,  40,  40)

     Estimated max dynamical RAM per process >       6.42 MB

     Estimated total dynamical RAM >     179.89 MB

     The potential is recalculated from file :
     /fastscratch/tsievers/QE_TMP_DIR/_ph0/si_ph_bench_nk_ompi_14_n_procs_28_1.save/charge-density

     Starting wfcs are    8 atomic wfcs

     Band Structure Calculation
     Davidson diagonalization with overlap

     ethr =  1.25E-10,  avg # of iterations = 12.9

     total cpu time spent up to now is       36.3 secs

     End of band structure calculation

     Number of k-points >= 100: set verbosity='high' to print the bands.

     highest occupied level (ev):     6.1106

     Writing config to output data dir /fastscratch/tsievers/QE_TMP_DIR/_ph0/si_ph_bench_nk_ompi_14_n_procs_28_1.save/

     default                                                                    

     bravais-lattice index     =            2
     lattice parameter (alat)  =      10.1899  a.u.
     unit-cell volume          =     264.5151 (a.u.)^3
     number of atoms/cell      =            2
     number of atomic types    =            1
     kinetic-energy cut-off    =      70.0000  Ry
     charge density cut-off    =     280.0000  Ry
     convergence threshold     =      1.0E-15
     beta                      =       0.7000
     number of iterations used =            4
     Exchange-correlation= PW
                           (   1   4   0   0   0   0   0)


     celldm(1)=   10.18990  celldm(2)=    0.00000  celldm(3)=    0.00000
     celldm(4)=    0.00000  celldm(5)=    0.00000  celldm(6)=    0.00000

     crystal axes: (cart. coord. in units of alat)
               a(1) = ( -0.5000  0.0000  0.5000 )  
               a(2) = (  0.0000  0.5000  0.5000 )  
               a(3) = ( -0.5000  0.5000  0.0000 )  

     reciprocal axes: (cart. coord. in units 2 pi/alat)
               b(1) = ( -1.0000 -1.0000  1.0000 )  
               b(2) = (  1.0000  1.0000  1.0000 )  
               b(3) = ( -1.0000  1.0000 -1.0000 )  


     Atoms inside the unit cell: 

     Cartesian axes

     site n.  atom      mass           positions (alat units)
        1     Si  28.0855   tau(    1) = (    0.00000    0.00000    0.00000  )
        2     Si  28.0855   tau(    2) = (   -0.25000    0.25000    0.25000  )

     Computing dynamical matrix for 
                    q = (   0.5000000  -0.5000000   0.5000000 )

     13 Sym.Ops. (with q -> -q+G )


     G cutoff =  736.4420  (  10439 G-vectors)     FFT grid: ( 40, 40, 40)
     number of k points=   182

     PseudoPot. # 1 for Si read from file:
     ./pseudos/Si.nc.UPF
     MD5 check sum: 9e2d726316af3d4752eea8ab0afbb951
     Pseudo is Norm-conserving + core correction, Zval =  4.0
     Generated using ONCVPSP code by D. R. Hamann
     Using radial grid of 1510 points,  6 beta functions with: 
                l(1) =   0
                l(2) =   0
                l(3) =   1
                l(4) =   1
                l(5) =   2
                l(6) =   2


     Atomic displacements:
     There are    4 irreducible representations

     Representation     1      1 modes -  To be done

     Representation     2      1 modes -  To be done

     Representation     3      2 modes -  To be done

     Representation     4      2 modes -  To be done



     Alpha used in Ewald sum =   2.8000
     PHONON       :   3m42.47s CPU  12m 5.74s WALL



     Representation #   1 mode #   1

     Self-consistent Calculation

      iter #   1 total cpu time :   727.6 secs   av.it.:   5.8
      thresh= 1.000E-02 alpha_mix =  0.700 |ddv_scf|^2 =  3.143E-06

      iter #   2 total cpu time :   731.8 secs   av.it.:   9.9
      thresh= 1.773E-04 alpha_mix =  0.700 |ddv_scf|^2 =  2.900E-06

      iter #   3 total cpu time :   734.7 secs   av.it.:   9.2
      thresh= 1.703E-04 alpha_mix =  0.700 |ddv_scf|^2 =  3.871E-10

      iter #   4 total cpu time :   740.2 secs   av.it.:  10.1
      thresh= 1.968E-06 alpha_mix =  0.700 |ddv_scf|^2 =  6.646E-12

      iter #   5 total cpu time :   743.3 secs   av.it.:   9.7
      thresh= 2.578E-07 alpha_mix =  0.700 |ddv_scf|^2 =  9.566E-14

      iter #   6 total cpu time :   747.2 secs   av.it.:   9.7
      thresh= 3.093E-08 alpha_mix =  0.700 |ddv_scf|^2 =  1.254E-15

      iter #   7 total cpu time :   749.8 secs   av.it.:   9.7
      thresh= 3.541E-09 alpha_mix =  0.700 |ddv_scf|^2 =  4.288E-18

     End of self-consistent calculation

     Convergence has been achieved 


     Representation #   2 mode #   2

     Self-consistent Calculation

      iter #   1 total cpu time :   755.9 secs   av.it.:   6.7
      thresh= 1.000E-02 alpha_mix =  0.700 |ddv_scf|^2 =  4.802E-05

      iter #   2 total cpu time :   759.8 secs   av.it.:  10.0
      thresh= 6.930E-04 alpha_mix =  0.700 |ddv_scf|^2 =  1.569E-04

      iter #   3 total cpu time :   762.8 secs   av.it.:   9.0
      thresh= 1.253E-03 alpha_mix =  0.700 |ddv_scf|^2 =  9.297E-09

      iter #   4 total cpu time :   766.1 secs   av.it.:   9.7
      thresh= 9.642E-06 alpha_mix =  0.700 |ddv_scf|^2 =  1.945E-10

      iter #   5 total cpu time :   769.6 secs   av.it.:  10.3
      thresh= 1.395E-06 alpha_mix =  0.700 |ddv_scf|^2 =  9.632E-12

      iter #   6 total cpu time :   773.2 secs   av.it.:  10.1
      thresh= 3.104E-07 alpha_mix =  0.700 |ddv_scf|^2 =  2.663E-13

      iter #   7 total cpu time :   777.0 secs   av.it.:   9.4
      thresh= 5.161E-08 alpha_mix =  0.700 |ddv_scf|^2 =  7.409E-17

     End of self-consistent calculation

     Convergence has been achieved 


     Representation #   3 modes #   3   4

     Self-consistent Calculation

      iter #   1 total cpu time :   783.8 secs   av.it.:   6.0
      thresh= 1.000E-02 alpha_mix =  0.700 |ddv_scf|^2 =  1.110E-07

      iter #   2 total cpu time :   791.8 secs   av.it.:  11.2
      thresh= 3.331E-05 alpha_mix =  0.700 |ddv_scf|^2 =  9.409E-09

      iter #   3 total cpu time :   798.0 secs   av.it.:  11.0
      thresh= 9.700E-06 alpha_mix =  0.700 |ddv_scf|^2 =  6.300E-11

      iter #   4 total cpu time :   803.4 secs   av.it.:  11.1
      thresh= 7.937E-07 alpha_mix =  0.700 |ddv_scf|^2 =  7.046E-14

      iter #   5 total cpu time :   808.7 secs   av.it.:  11.3
      thresh= 2.654E-08 alpha_mix =  0.700 |ddv_scf|^2 =  9.248E-16

     End of self-consistent calculation

     Convergence has been achieved 


     Representation #   4 modes #   5   6

     Self-consistent Calculation

      iter #   1 total cpu time :   814.4 secs   av.it.:   5.5
      thresh= 1.000E-02 alpha_mix =  0.700 |ddv_scf|^2 =  1.261E-08

      iter #   2 total cpu time :   820.1 secs   av.it.:  11.2
      thresh= 1.123E-05 alpha_mix =  0.700 |ddv_scf|^2 =  3.314E-10

      iter #   3 total cpu time :   826.2 secs   av.it.:  11.2
      thresh= 1.820E-06 alpha_mix =  0.700 |ddv_scf|^2 =  2.037E-11

      iter #   4 total cpu time :   831.1 secs   av.it.:  11.2
      thresh= 4.514E-07 alpha_mix =  0.700 |ddv_scf|^2 =  8.665E-14

      iter #   5 total cpu time :   838.3 secs   av.it.:  11.2
      thresh= 2.944E-08 alpha_mix =  0.700 |ddv_scf|^2 =  1.388E-15

      iter #   6 total cpu time :   843.5 secs   av.it.:  11.3
      thresh= 3.725E-09 alpha_mix =  0.700 |ddv_scf|^2 =  2.796E-18

     End of self-consistent calculation

     Convergence has been achieved 

     Number of q in the star =    4
     List of q in the star:
          1   0.500000000  -0.500000000   0.500000000
          2   0.500000000   0.500000000   0.500000000
          3  -0.500000000   0.500000000   0.500000000
          4   0.500000000   0.500000000  -0.500000000

     Diagonalizing the dynamical matrix

     q = (    0.500000000  -0.500000000   0.500000000 ) 

 **************************************************************************
     freq (    1) =       3.158319 [THz] =     105.350175 [cm-1]
     freq (    2) =       3.158319 [THz] =     105.350175 [cm-1]
     freq (    3) =      11.168981 [THz] =     372.557117 [cm-1]
     freq (    4) =      12.390709 [THz] =     413.309556 [cm-1]
     freq (    5) =      14.704264 [THz] =     490.481467 [cm-1]
     freq (    6) =      14.704264 [THz] =     490.481467 [cm-1]
 **************************************************************************

     Calculation of q =    0.0000000   0.3333333   0.0000000

     Parallelization info
     --------------------
     sticks:   dense  smooth     PW     G-vecs:    dense   smooth      PW
     Min         501     501    156                10436    10436    1859
     Max         502     502    157                10439    10439    1860
     Sum        1003    1003    313                20875    20875    3719

     Using Slab Decomposition


     Title: 
     default                                                                    


     bravais-lattice index     =            2
     lattice parameter (alat)  =      10.1899  a.u.
     unit-cell volume          =     264.5151 (a.u.)^3
     number of atoms/cell      =            2
     number of atomic types    =            1
     number of electrons       =         8.00
     number of Kohn-Sham states=            4
     kinetic-energy cutoff     =      70.0000  Ry
     charge density cutoff     =     280.0000  Ry
     Exchange-correlation= PW
                           (   1   4   0   0   0   0   0)

     celldm(1)=  10.189905  celldm(2)=   0.000000  celldm(3)=   0.000000
     celldm(4)=   0.000000  celldm(5)=   0.000000  celldm(6)=   0.000000

     crystal axes: (cart. coord. in units of alat)
               a(1) = (  -0.500000   0.000000   0.500000 )  
               a(2) = (   0.000000   0.500000   0.500000 )  
               a(3) = (  -0.500000   0.500000   0.000000 )  

     reciprocal axes: (cart. coord. in units 2 pi/alat)
               b(1) = ( -1.000000 -1.000000  1.000000 )  
               b(2) = (  1.000000  1.000000  1.000000 )  
               b(3) = ( -1.000000  1.000000 -1.000000 )  


     PseudoPot. # 1 for Si read from file:
     ./pseudos/Si.nc.UPF
     MD5 check sum: 9e2d726316af3d4752eea8ab0afbb951
     Pseudo is Norm-conserving + core correction, Zval =  4.0
     Generated using ONCVPSP code by D. R. Hamann
     Using radial grid of 1510 points,  6 beta functions with: 
                l(1) =   0
                l(2) =   0
                l(3) =   1
                l(4) =   1
                l(5) =   2
                l(6) =   2

     atomic species   valence    mass     pseudopotential
        Si             4.00    28.08550     Si( 1.00)

     48 Sym. Ops., with inversion, found



   Cartesian axes

     site n.     atom                  positions (alat units)
         1           Si  tau(   1) = (   0.0000000   0.0000000   0.0000000  )
         2           Si  tau(   2) = (  -0.2500000   0.2500000   0.2500000  )

     number of k points=   252

     Number of k-points >= 100: set verbosity='high' to print them.

     Dense  grid:    20875 G-vectors     FFT dimensions: (  40,  40,  40)

     Estimated max dynamical RAM per process >       6.40 MB

     Estimated total dynamical RAM >     179.15 MB

     The potential is recalculated from file :
     /fastscratch/tsievers/QE_TMP_DIR/_ph0/si_ph_bench_nk_ompi_14_n_procs_28_1.save/charge-density

     Starting wfcs are    8 atomic wfcs

     Band Structure Calculation
     Davidson diagonalization with overlap

     ethr =  1.25E-10,  avg # of iterations = 12.8

     total cpu time spent up to now is       46.9 secs

     End of band structure calculation

     Number of k-points >= 100: set verbosity='high' to print the bands.

     highest occupied level (ev):     6.1106

     Writing config to output data dir /fastscratch/tsievers/QE_TMP_DIR/_ph0/si_ph_bench_nk_ompi_14_n_procs_28_1.save/

     default                                                                    

     bravais-lattice index     =            2
     lattice parameter (alat)  =      10.1899  a.u.
     unit-cell volume          =     264.5151 (a.u.)^3
     number of atoms/cell      =            2
     number of atomic types    =            1
     kinetic-energy cut-off    =      70.0000  Ry
     charge density cut-off    =     280.0000  Ry
     convergence threshold     =      1.0E-15
     beta                      =       0.7000
     number of iterations used =            4
     Exchange-correlation= PW
                           (   1   4   0   0   0   0   0)


     celldm(1)=   10.18990  celldm(2)=    0.00000  celldm(3)=    0.00000
     celldm(4)=    0.00000  celldm(5)=    0.00000  celldm(6)=    0.00000

     crystal axes: (cart. coord. in units of alat)
               a(1) = ( -0.5000  0.0000  0.5000 )  
               a(2) = (  0.0000  0.5000  0.5000 )  
               a(3) = ( -0.5000  0.5000  0.0000 )  

     reciprocal axes: (cart. coord. in units 2 pi/alat)
               b(1) = ( -1.0000 -1.0000  1.0000 )  
               b(2) = (  1.0000  1.0000  1.0000 )  
               b(3) = ( -1.0000  1.0000 -1.0000 )  


     Atoms inside the unit cell: 

     Cartesian axes

     site n.  atom      mass           positions (alat units)
        1     Si  28.0855   tau(    1) = (    0.00000    0.00000    0.00000  )
        2     Si  28.0855   tau(    2) = (   -0.25000    0.25000    0.25000  )

     Computing dynamical matrix for 
                    q = (   0.0000000   0.3333333   0.0000000 )

      8 Sym.Ops. (no q -> -q+G )


     G cutoff =  736.4420  (  10439 G-vectors)     FFT grid: ( 40, 40, 40)
     number of k points=   252

     PseudoPot. # 1 for Si read from file:
     ./pseudos/Si.nc.UPF
     MD5 check sum: 9e2d726316af3d4752eea8ab0afbb951
     Pseudo is Norm-conserving + core correction, Zval =  4.0
     Generated using ONCVPSP code by D. R. Hamann
     Using radial grid of 1510 points,  6 beta functions with: 
                l(1) =   0
                l(2) =   0
                l(3) =   1
                l(4) =   1
                l(5) =   2
                l(6) =   2

     Mode symmetry, C_4v (4mm)  point group:


     Atomic displacements:
     There are    4 irreducible representations

     Representation     1      1 modes -  To be done

     Representation     2      1 modes -  To be done

     Representation     3      2 modes -  To be done

     Representation     4      2 modes -  To be done



     Alpha used in Ewald sum =   2.8000
     PHONON       :   4m24.13s CPU  14m23.32s WALL



     Representation #   1 mode #   1

     Self-consistent Calculation

      iter #   1 total cpu time :   867.0 secs   av.it.:   6.8
      thresh= 1.000E-02 alpha_mix =  0.700 |ddv_scf|^2 =  2.084E-03

      iter #   2 total cpu time :   871.0 secs   av.it.:   9.1
      thresh= 4.566E-03 alpha_mix =  0.700 |ddv_scf|^2 =  6.356E-02

      iter #   3 total cpu time :   874.0 secs   av.it.:   8.0
      thresh= 1.000E-02 alpha_mix =  0.700 |ddv_scf|^2 =  5.824E-08

      iter #   4 total cpu time :   878.7 secs   av.it.:   9.0
      thresh= 2.413E-05 alpha_mix =  0.700 |ddv_scf|^2 =  2.821E-09

      iter #   5 total cpu time :   884.3 secs   av.it.:   8.6
      thresh= 5.312E-06 alpha_mix =  0.700 |ddv_scf|^2 =  9.090E-10

      iter #   6 total cpu time :   889.0 secs   av.it.:   8.1
      thresh= 3.015E-06 alpha_mix =  0.700 |ddv_scf|^2 =  1.278E-12

      iter #   7 total cpu time :   894.2 secs   av.it.:   8.4
      thresh= 1.131E-07 alpha_mix =  0.700 |ddv_scf|^2 =  2.718E-14

      iter #   8 total cpu time :   897.3 secs   av.it.:   8.4
      thresh= 1.649E-08 alpha_mix =  0.700 |ddv_scf|^2 =  3.560E-16

     End of self-consistent calculation

     Convergence has been achieved 


     Representation #   2 mode #   2

     Self-consistent Calculation

      iter #   1 total cpu time :   901.3 secs   av.it.:   5.9
      thresh= 1.000E-02 alpha_mix =  0.700 |ddv_scf|^2 =  3.182E-07

      iter #   2 total cpu time :   906.9 secs   av.it.:  10.4
      thresh= 5.641E-05 alpha_mix =  0.700 |ddv_scf|^2 =  5.145E-08

      iter #   3 total cpu time :   911.0 secs   av.it.:  10.2
      thresh= 2.268E-05 alpha_mix =  0.700 |ddv_scf|^2 =  6.508E-10

      iter #   4 total cpu time :   914.6 secs   av.it.:  10.4
      thresh= 2.551E-06 alpha_mix =  0.700 |ddv_scf|^2 =  2.703E-11

      iter #   5 total cpu time :   918.0 secs   av.it.:  10.3
      thresh= 5.199E-07 alpha_mix =  0.700 |ddv_scf|^2 =  6.158E-14

      iter #   6 total cpu time :   921.9 secs   av.it.:  10.4
      thresh= 2.481E-08 alpha_mix =  0.700 |ddv_scf|^2 =  1.230E-15

      iter #   7 total cpu time :   925.4 secs   av.it.:  10.4
      thresh= 3.507E-09 alpha_mix =  0.700 |ddv_scf|^2 =  2.872E-17

     End of self-consistent calculation

     Convergence has been achieved 


     Representation #   3 modes #   3   4

     Self-consistent Calculation

      iter #   1 total cpu time :   933.2 secs   av.it.:   6.0
      thresh= 1.000E-02 alpha_mix =  0.700 |ddv_scf|^2 =  5.758E-08

      iter #   2 total cpu time :   943.9 secs   av.it.:  11.3
      thresh= 2.400E-05 alpha_mix =  0.700 |ddv_scf|^2 =  5.249E-09

      iter #   3 total cpu time :   950.8 secs   av.it.:  11.1
      thresh= 7.245E-06 alpha_mix =  0.700 |ddv_scf|^2 =  6.119E-11

      iter #   4 total cpu time :   959.0 secs   av.it.:  11.3
      thresh= 7.822E-07 alpha_mix =  0.700 |ddv_scf|^2 =  6.882E-13

      iter #   5 total cpu time :   966.4 secs   av.it.:  11.2
      thresh= 8.296E-08 alpha_mix =  0.700 |ddv_scf|^2 =  1.142E-14

      iter #   6 total cpu time :   971.7 secs   av.it.:  11.5
      thresh= 1.069E-08 alpha_mix =  0.700 |ddv_scf|^2 =  4.656E-17

     End of self-consistent calculation

     Convergence has been achieved 


     Representation #   4 modes #   5   6

     Self-consistent Calculation

      iter #   1 total cpu time :   977.8 secs   av.it.:   6.1
      thresh= 1.000E-02 alpha_mix =  0.700 |ddv_scf|^2 =  7.593E-08

      iter #   2 total cpu time :   984.1 secs   av.it.:  11.3
      thresh= 2.756E-05 alpha_mix =  0.700 |ddv_scf|^2 =  7.163E-09

      iter #   3 total cpu time :   991.2 secs   av.it.:  11.1
      thresh= 8.463E-06 alpha_mix =  0.700 |ddv_scf|^2 =  6.475E-11

      iter #   4 total cpu time :   999.4 secs   av.it.:  11.3
      thresh= 8.047E-07 alpha_mix =  0.700 |ddv_scf|^2 =  4.406E-13

      iter #   5 total cpu time :  1006.6 secs   av.it.:  11.2
      thresh= 6.638E-08 alpha_mix =  0.700 |ddv_scf|^2 =  1.046E-14

      iter #   6 total cpu time :  1012.9 secs   av.it.:  11.6
      thresh= 1.023E-08 alpha_mix =  0.700 |ddv_scf|^2 =  4.419E-17

     End of self-consistent calculation

     Convergence has been achieved 

     Number of q in the star =    6
     List of q in the star:
          1   0.000000000   0.333333333   0.000000000
          2   0.333333333   0.000000000   0.000000000
          3   0.000000000   0.000000000   0.333333333
          4   0.000000000  -0.333333333   0.000000000
          5  -0.333333333   0.000000000   0.000000000
          6   0.000000000   0.000000000  -0.333333333

     Diagonalizing the dynamical matrix

     q = (    0.000000000   0.333333333   0.000000000 ) 

 **************************************************************************
     freq (    1) =       2.948456 [THz] =      98.349908 [cm-1]
     freq (    2) =       2.948456 [THz] =      98.349908 [cm-1]
     freq (    3) =       4.953325 [THz] =     165.225133 [cm-1]
     freq (    4) =      14.670278 [THz] =     489.347796 [cm-1]
     freq (    5) =      14.670278 [THz] =     489.347796 [cm-1]
     freq (    6) =      15.143125 [THz] =     505.120271 [cm-1]
 **************************************************************************

     Mode symmetry, C_4v (4mm)  point group:

     freq (   1-   2) =         98.3  [cm-1]   --> E    G_5 D_5       
     freq (   3-   3) =        165.2  [cm-1]   --> A_1  G_1 D_1       
     freq (   4-   5) =        489.3  [cm-1]   --> E    G_5 D_5       
     freq (   6-   6) =        505.1  [cm-1]   --> B_2  G_4 D_2'      

     Calculation of q =   -0.1666667   0.5000000  -0.1666667

     Parallelization info
     --------------------
     sticks:   dense  smooth     PW     G-vecs:    dense   smooth      PW
     Min         501     501    156                10436    10436    1917
     Max         502     502    157                10439    10439    1922
     Sum        1003    1003    313                20875    20875    3839

     Using Slab Decomposition


     Title: 
     default                                                                    


     bravais-lattice index     =            2
     lattice parameter (alat)  =      10.1899  a.u.
     unit-cell volume          =     264.5151 (a.u.)^3
     number of atoms/cell      =            2
     number of atomic types    =            1
     number of electrons       =         8.00
     number of Kohn-Sham states=            4
     kinetic-energy cutoff     =      70.0000  Ry
     charge density cutoff     =     280.0000  Ry
     Exchange-correlation= PW
                           (   1   4   0   0   0   0   0)

     celldm(1)=  10.189905  celldm(2)=   0.000000  celldm(3)=   0.000000
     celldm(4)=   0.000000  celldm(5)=   0.000000  celldm(6)=   0.000000

     crystal axes: (cart. coord. in units of alat)
               a(1) = (  -0.500000   0.000000   0.500000 )  
               a(2) = (   0.000000   0.500000   0.500000 )  
               a(3) = (  -0.500000   0.500000   0.000000 )  

     reciprocal axes: (cart. coord. in units 2 pi/alat)
               b(1) = ( -1.000000 -1.000000  1.000000 )  
               b(2) = (  1.000000  1.000000  1.000000 )  
               b(3) = ( -1.000000  1.000000 -1.000000 )  


     PseudoPot. # 1 for Si read from file:
     ./pseudos/Si.nc.UPF
     MD5 check sum: 9e2d726316af3d4752eea8ab0afbb951
     Pseudo is Norm-conserving + core correction, Zval =  4.0
     Generated using ONCVPSP code by D. R. Hamann
     Using radial grid of 1510 points,  6 beta functions with: 
                l(1) =   0
                l(2) =   0
                l(3) =   1
                l(4) =   1
                l(5) =   2
                l(6) =   2

     atomic species   valence    mass     pseudopotential
        Si             4.00    28.08550     Si( 1.00)

     48 Sym. Ops., with inversion, found



   Cartesian axes

     site n.     atom                  positions (alat units)
         1           Si  tau(   1) = (   0.0000000   0.0000000   0.0000000  )
         2           Si  tau(   2) = (  -0.2500000   0.2500000   0.2500000  )

     number of k points=   936

     Number of k-points >= 100: set verbosity='high' to print them.

     Dense  grid:    20875 G-vectors     FFT dimensions: (  40,  40,  40)

     Estimated max dynamical RAM per process >       6.41 MB

     Estimated total dynamical RAM >     179.46 MB

     The potential is recalculated from file :
     /fastscratch/tsievers/QE_TMP_DIR/_ph0/si_ph_bench_nk_ompi_14_n_procs_28_1.save/charge-density

     Starting wfcs are    8 atomic wfcs

     Band Structure Calculation
     Davidson diagonalization with overlap

     ethr =  1.25E-10,  avg # of iterations = 12.8

     total cpu time spent up to now is       83.0 secs

     End of band structure calculation

     Number of k-points >= 100: set verbosity='high' to print the bands.

     highest occupied level (ev):     6.1106

     Writing config to output data dir /fastscratch/tsievers/QE_TMP_DIR/_ph0/si_ph_bench_nk_ompi_14_n_procs_28_1.save/

     default                                                                    

     bravais-lattice index     =            2
     lattice parameter (alat)  =      10.1899  a.u.
     unit-cell volume          =     264.5151 (a.u.)^3
     number of atoms/cell      =            2
     number of atomic types    =            1
     kinetic-energy cut-off    =      70.0000  Ry
     charge density cut-off    =     280.0000  Ry
     convergence threshold     =      1.0E-15
     beta                      =       0.7000
     number of iterations used =            4
     Exchange-correlation= PW
                           (   1   4   0   0   0   0   0)


     celldm(1)=   10.18990  celldm(2)=    0.00000  celldm(3)=    0.00000
     celldm(4)=    0.00000  celldm(5)=    0.00000  celldm(6)=    0.00000

     crystal axes: (cart. coord. in units of alat)
               a(1) = ( -0.5000  0.0000  0.5000 )  
               a(2) = (  0.0000  0.5000  0.5000 )  
               a(3) = ( -0.5000  0.5000  0.0000 )  

     reciprocal axes: (cart. coord. in units 2 pi/alat)
               b(1) = ( -1.0000 -1.0000  1.0000 )  
               b(2) = (  1.0000  1.0000  1.0000 )  
               b(3) = ( -1.0000  1.0000 -1.0000 )  


     Atoms inside the unit cell: 

[...]
      thresh= 1.982E-06 alpha_mix =  0.700 |ddv_scf|^2 =  9.969E-12

      iter #   6 total cpu time :  5236.7 secs   av.it.:  10.6
      thresh= 3.157E-07 alpha_mix =  0.700 |ddv_scf|^2 =  5.890E-14

      iter #   7 total cpu time :  5243.9 secs   av.it.:  10.5
      thresh= 2.427E-08 alpha_mix =  0.700 |ddv_scf|^2 =  7.295E-15

      iter #   8 total cpu time :  5252.0 secs   av.it.:  10.5
      thresh= 8.541E-09 alpha_mix =  0.700 |ddv_scf|^2 =  2.598E-15

      iter #   9 total cpu time :  5258.9 secs   av.it.:  10.0
      thresh= 5.097E-09 alpha_mix =  0.700 |ddv_scf|^2 =  3.485E-16

     End of self-consistent calculation

     Convergence has been achieved 


     Representation #   6 mode #   6

     Self-consistent Calculation

      iter #   1 total cpu time :  5265.7 secs   av.it.:   6.3
      thresh= 1.000E-02 alpha_mix =  0.700 |ddv_scf|^2 =  2.529E-06

      iter #   2 total cpu time :  5274.3 secs   av.it.:  10.7
      thresh= 1.590E-04 alpha_mix =  0.700 |ddv_scf|^2 =  2.773E-06

      iter #   3 total cpu time :  5282.5 secs   av.it.:   9.8
      thresh= 1.665E-04 alpha_mix =  0.700 |ddv_scf|^2 =  6.792E-08

      iter #   4 total cpu time :  5294.0 secs   av.it.:  10.0
      thresh= 2.606E-05 alpha_mix =  0.700 |ddv_scf|^2 =  2.216E-10

      iter #   5 total cpu time :  5304.9 secs   av.it.:  10.4
      thresh= 1.489E-06 alpha_mix =  0.700 |ddv_scf|^2 =  4.175E-12

      iter #   6 total cpu time :  5313.3 secs   av.it.:  10.5
      thresh= 2.043E-07 alpha_mix =  0.700 |ddv_scf|^2 =  1.957E-14

      iter #   7 total cpu time :  5321.7 secs   av.it.:  10.5
      thresh= 1.399E-08 alpha_mix =  0.700 |ddv_scf|^2 =  1.133E-15

      iter #   8 total cpu time :  5334.5 secs   av.it.:  10.7
      thresh= 3.365E-09 alpha_mix =  0.700 |ddv_scf|^2 =  6.122E-17

     End of self-consistent calculation

     Convergence has been achieved 

     Number of q in the star =   24
     List of q in the star:
          1   0.500000000  -0.166666667   0.833333333
          2   0.833333333   0.166666667   0.500000000
          3   0.500000000   0.166666667   0.833333333
          4  -0.833333333  -0.166666667   0.500000000
          5  -0.833333333  -0.166666667  -0.500000000
          6  -0.500000000  -0.166666667  -0.833333333
          7   0.833333333  -0.166666667   0.500000000
          8  -0.500000000  -0.166666667   0.833333333
          9  -0.833333333   0.166666667   0.500000000
         10   0.833333333   0.166666667  -0.500000000
         11   0.833333333  -0.166666667  -0.500000000
         12   0.500000000   0.166666667  -0.833333333
         13  -0.500000000   0.166666667   0.833333333
         14  -0.500000000   0.166666667  -0.833333333
         15  -0.833333333   0.166666667  -0.500000000
         16   0.833333333  -0.500000000   0.166666667
         17   0.833333333   0.500000000  -0.166666667
         18  -0.833333333  -0.500000000  -0.166666667
         19  -0.833333333   0.500000000   0.166666667
         20   0.166666667  -0.500000000   0.833333333
         21  -0.166666667   0.500000000   0.833333333
         22   0.166666667   0.500000000  -0.833333333
         23  -0.166666667  -0.500000000  -0.833333333
         24  -0.500000000   0.833333333   0.166666667

     Diagonalizing the dynamical matrix

     q = (    0.500000000  -0.166666667   0.833333333 ) 

 **************************************************************************
     freq (    1) =       5.052012 [THz] =     168.516982 [cm-1]
     freq (    2) =       6.066613 [THz] =     202.360441 [cm-1]
     freq (    3) =       9.812902 [THz] =     327.323171 [cm-1]
     freq (    4) =      11.453269 [THz] =     382.039946 [cm-1]
     freq (    5) =      14.041871 [THz] =     468.386401 [cm-1]
     freq (    6) =      14.270908 [THz] =     476.026254 [cm-1]
 **************************************************************************

     Calculation of q =   -0.3333333  -1.0000000   0.0000000

     Parallelization info
     --------------------
     sticks:   dense  smooth     PW     G-vecs:    dense   smooth      PW
     Min         501     501    174                10436    10436    2139
     Max         502     502    175                10439    10439    2140
     Sum        1003    1003    349                20875    20875    4279

     Using Slab Decomposition


     Title: 
     default                                                                    


     bravais-lattice index     =            2
     lattice parameter (alat)  =      10.1899  a.u.
     unit-cell volume          =     264.5151 (a.u.)^3
     number of atoms/cell      =            2
     number of atomic types    =            1
     number of electrons       =         8.00
     number of Kohn-Sham states=            4
     kinetic-energy cutoff     =      70.0000  Ry
     charge density cutoff     =     280.0000  Ry
     Exchange-correlation= PW
                           (   1   4   0   0   0   0   0)

     celldm(1)=  10.189905  celldm(2)=   0.000000  celldm(3)=   0.000000
     celldm(4)=   0.000000  celldm(5)=   0.000000  celldm(6)=   0.000000

     crystal axes: (cart. coord. in units of alat)
               a(1) = (  -0.500000   0.000000   0.500000 )  
               a(2) = (   0.000000   0.500000   0.500000 )  
               a(3) = (  -0.500000   0.500000   0.000000 )  

     reciprocal axes: (cart. coord. in units 2 pi/alat)
               b(1) = ( -1.000000 -1.000000  1.000000 )  
               b(2) = (  1.000000  1.000000  1.000000 )  
               b(3) = ( -1.000000  1.000000 -1.000000 )  


     PseudoPot. # 1 for Si read from file:
     ./pseudos/Si.nc.UPF
     MD5 check sum: 9e2d726316af3d4752eea8ab0afbb951
     Pseudo is Norm-conserving + core correction, Zval =  4.0
     Generated using ONCVPSP code by D. R. Hamann
     Using radial grid of 1510 points,  6 beta functions with: 
                l(1) =   0
                l(2) =   0
                l(3) =   1
                l(4) =   1
                l(5) =   2
                l(6) =   2

     atomic species   valence    mass     pseudopotential
        Si             4.00    28.08550     Si( 1.00)

     48 Sym. Ops., with inversion, found



   Cartesian axes

     site n.     atom                  positions (alat units)
         1           Si  tau(   1) = (   0.0000000   0.0000000   0.0000000  )
         2           Si  tau(   2) = (  -0.2500000   0.2500000   0.2500000  )

     number of k points=   432

     Number of k-points >= 100: set verbosity='high' to print them.

     Dense  grid:    20875 G-vectors     FFT dimensions: (  40,  40,  40)

     Estimated max dynamical RAM per process >       6.43 MB

     Estimated total dynamical RAM >     180.16 MB

     The potential is recalculated from file :
     /fastscratch/tsievers/QE_TMP_DIR/_ph0/si_ph_bench_nk_ompi_14_n_procs_28_1.save/charge-density

     Starting wfcs are    8 atomic wfcs

     Band Structure Calculation
     Davidson diagonalization with overlap

     ethr =  1.25E-10,  avg # of iterations = 12.8

     total cpu time spent up to now is      373.1 secs

     End of band structure calculation

     Number of k-points >= 100: set verbosity='high' to print the bands.

     highest occupied level (ev):     6.1106

     Writing config to output data dir /fastscratch/tsievers/QE_TMP_DIR/_ph0/si_ph_bench_nk_ompi_14_n_procs_28_1.save/

     default                                                                    

     bravais-lattice index     =            2
     lattice parameter (alat)  =      10.1899  a.u.
     unit-cell volume          =     264.5151 (a.u.)^3
     number of atoms/cell      =            2
     number of atomic types    =            1
     kinetic-energy cut-off    =      70.0000  Ry
     charge density cut-off    =     280.0000  Ry
     convergence threshold     =      1.0E-15
     beta                      =       0.7000
     number of iterations used =            4
     Exchange-correlation= PW
                           (   1   4   0   0   0   0   0)


     celldm(1)=   10.18990  celldm(2)=    0.00000  celldm(3)=    0.00000
     celldm(4)=    0.00000  celldm(5)=    0.00000  celldm(6)=    0.00000

     crystal axes: (cart. coord. in units of alat)
               a(1) = ( -0.5000  0.0000  0.5000 )  
               a(2) = (  0.0000  0.5000  0.5000 )  
               a(3) = ( -0.5000  0.5000  0.0000 )  

     reciprocal axes: (cart. coord. in units 2 pi/alat)
               b(1) = ( -1.0000 -1.0000  1.0000 )  
               b(2) = (  1.0000  1.0000  1.0000 )  
               b(3) = ( -1.0000  1.0000 -1.0000 )  


     Atoms inside the unit cell: 

     Cartesian axes

     site n.  atom      mass           positions (alat units)
        1     Si  28.0855   tau(    1) = (    0.00000    0.00000    0.00000  )
        2     Si  28.0855   tau(    2) = (   -0.25000    0.25000    0.25000  )

     Computing dynamical matrix for 
                    q = (  -0.3333333  -1.0000000   0.0000000 )

      4 Sym.Ops. (no q -> -q+G )


     G cutoff =  736.4420  (  10439 G-vectors)     FFT grid: ( 40, 40, 40)
     number of k points=   432

     PseudoPot. # 1 for Si read from file:
     ./pseudos/Si.nc.UPF
     MD5 check sum: 9e2d726316af3d4752eea8ab0afbb951
     Pseudo is Norm-conserving + core correction, Zval =  4.0
     Generated using ONCVPSP code by D. R. Hamann
     Using radial grid of 1510 points,  6 beta functions with: 
                l(1) =   0
                l(2) =   0
                l(3) =   1
                l(4) =   1
                l(5) =   2
                l(6) =   2


     Atomic displacements:
     There are    3 irreducible representations

     Representation     1      2 modes -  To be done

     Representation     2      2 modes -  To be done

     Representation     3      2 modes -  To be done



     Alpha used in Ewald sum =   2.8000
     PHONON       :  29m48.84s CPU      1h29m WALL



     Representation #   1 modes #   1   2

     Self-consistent Calculation

      iter #   1 total cpu time :  5366.9 secs   av.it.:   6.2
      thresh= 1.000E-02 alpha_mix =  0.700 |ddv_scf|^2 =  5.042E-07

      iter #   2 total cpu time :  5376.4 secs   av.it.:  11.4
      thresh= 7.101E-05 alpha_mix =  0.700 |ddv_scf|^2 =  5.621E-07

      iter #   3 total cpu time :  5385.0 secs   av.it.:  10.8
      thresh= 7.498E-05 alpha_mix =  0.700 |ddv_scf|^2 =  4.580E-09

      iter #   4 total cpu time :  5393.3 secs   av.it.:  11.0
      thresh= 6.767E-06 alpha_mix =  0.700 |ddv_scf|^2 =  9.295E-11

      iter #   5 total cpu time :  5404.0 secs   av.it.:  11.1
      thresh= 9.641E-07 alpha_mix =  0.700 |ddv_scf|^2 =  1.075E-12

      iter #   6 total cpu time :  5412.2 secs   av.it.:  11.3
      thresh= 1.037E-07 alpha_mix =  0.700 |ddv_scf|^2 =  2.152E-14

      iter #   7 total cpu time :  5420.6 secs   av.it.:  11.2
      thresh= 1.467E-08 alpha_mix =  0.700 |ddv_scf|^2 =  1.122E-15

      iter #   8 total cpu time :  5428.9 secs   av.it.:  11.2
      thresh= 3.349E-09 alpha_mix =  0.700 |ddv_scf|^2 =  3.000E-17

     End of self-consistent calculation

     Convergence has been achieved 


     Representation #   2 modes #   3   4

     Self-consistent Calculation

      iter #   1 total cpu time :  5439.6 secs   av.it.:   6.4
      thresh= 1.000E-02 alpha_mix =  0.700 |ddv_scf|^2 =  9.142E-07

      iter #   2 total cpu time :  5449.4 secs   av.it.:  11.4
      thresh= 9.561E-05 alpha_mix =  0.700 |ddv_scf|^2 =  1.025E-06

      iter #   3 total cpu time :  5457.7 secs   av.it.:  10.8
      thresh= 1.012E-04 alpha_mix =  0.700 |ddv_scf|^2 =  8.861E-09

      iter #   4 total cpu time :  5467.3 secs   av.it.:  10.9
      thresh= 9.413E-06 alpha_mix =  0.700 |ddv_scf|^2 =  9.243E-11

      iter #   5 total cpu time :  5476.1 secs   av.it.:  11.1
      thresh= 9.614E-07 alpha_mix =  0.700 |ddv_scf|^2 =  2.105E-12

      iter #   6 total cpu time :  5485.1 secs   av.it.:  11.3
      thresh= 1.451E-07 alpha_mix =  0.700 |ddv_scf|^2 =  1.673E-14

      iter #   7 total cpu time :  5494.4 secs   av.it.:  11.2
      thresh= 1.293E-08 alpha_mix =  0.700 |ddv_scf|^2 =  1.059E-15

      iter #   8 total cpu time :  5502.0 secs   av.it.:  11.2
      thresh= 3.254E-09 alpha_mix =  0.700 |ddv_scf|^2 =  2.869E-17

     End of self-consistent calculation

     Convergence has been achieved 


     Representation #   3 modes #   5   6

     Self-consistent Calculation

      iter #   1 total cpu time :  5510.1 secs   av.it.:   6.6
      thresh= 1.000E-02 alpha_mix =  0.700 |ddv_scf|^2 =  1.211E-06

      iter #   2 total cpu time :  5525.1 secs   av.it.:  11.4
      thresh= 1.100E-04 alpha_mix =  0.700 |ddv_scf|^2 =  1.328E-06

      iter #   3 total cpu time :  5534.9 secs   av.it.:  10.8
      thresh= 1.153E-04 alpha_mix =  0.700 |ddv_scf|^2 =  1.073E-08

      iter #   4 total cpu time :  5543.7 secs   av.it.:  10.9
      thresh= 1.036E-05 alpha_mix =  0.700 |ddv_scf|^2 =  7.278E-11

      iter #   5 total cpu time :  5552.3 secs   av.it.:  11.2
      thresh= 8.531E-07 alpha_mix =  0.700 |ddv_scf|^2 =  6.892E-13

      iter #   6 total cpu time :  5562.0 secs   av.it.:  11.2
      thresh= 8.302E-08 alpha_mix =  0.700 |ddv_scf|^2 =  1.228E-14

      iter #   7 total cpu time :  5569.5 secs   av.it.:  11.2
      thresh= 1.108E-08 alpha_mix =  0.700 |ddv_scf|^2 =  7.358E-16

     End of self-consistent calculation

     Convergence has been achieved 

     Number of q in the star =   12
     List of q in the star:
          1  -0.333333333  -1.000000000   0.000000000
          2   0.000000000  -1.000000000  -0.333333333
          3   0.000000000  -1.000000000   0.333333333
          4   0.333333333  -1.000000000   0.000000000
          5  -1.000000000   0.000000000  -0.333333333
          6   1.000000000   0.000000000   0.333333333
          7   0.000000000   0.333333333   1.000000000
          8   0.000000000  -0.333333333  -1.000000000
          9  -1.000000000  -0.333333333   0.000000000
         10   1.000000000   0.333333333   0.000000000
         11  -0.333333333   0.000000000   1.000000000
         12   0.333333333   0.000000000   1.000000000

     Diagonalizing the dynamical matrix

     q = (   -0.333333333  -1.000000000   0.000000000 ) 

 **************************************************************************
     freq (    1) =       5.494565 [THz] =     183.278961 [cm-1]
     freq (    2) =       5.494565 [THz] =     183.278961 [cm-1]
     freq (    3) =      10.966338 [THz] =     365.797655 [cm-1]
     freq (    4) =      10.966338 [THz] =     365.797655 [cm-1]
     freq (    5) =      14.002157 [THz] =     467.061687 [cm-1]
     freq (    6) =      14.002157 [THz] =     467.061687 [cm-1]
 **************************************************************************

     init_run     :      3.72s CPU     10.12s WALL (      15 calls)
     electrons    :    117.51s CPU    354.22s WALL (      15 calls)

     Called by init_run:
     wfcinit      :      0.00s CPU      0.25s WALL (      15 calls)
     potinit      :      0.64s CPU      2.18s WALL (      15 calls)
     hinit0       :      1.10s CPU      2.43s WALL (      15 calls)

     Called by electrons:
     c_bands      :    116.80s CPU    351.86s WALL (      15 calls)
     v_of_rho     :      0.11s CPU      0.24s WALL (      16 calls)

     Called by c_bands:
     init_us_2    :      8.84s CPU     19.61s WALL (   18542 calls)
     init_us_2:cp :      8.80s CPU     19.54s WALL (   18542 calls)
     cegterg      :     47.28s CPU    122.83s WALL (     608 calls)

     Called by *egterg:
     cdiaghg      :      0.49s CPU      1.30s WALL (    8636 calls)
     h_psi        :    796.52s CPU   1955.01s WALL (  185914 calls)
     g_psi        :      0.27s CPU      0.59s WALL (    8028 calls)

     Called by h_psi:
     h_psi:calbec :     67.30s CPU    167.69s WALL (  185914 calls)
     vloc_psi     :    693.49s CPU   1701.74s WALL (  185914 calls)
     add_vuspsi   :     33.28s CPU     79.80s WALL (  185914 calls)

     General routines
     calbec       :    129.25s CPU    327.54s WALL (  372994 calls)
     fft          :      4.64s CPU     14.54s WALL (    3721 calls)
     ffts         :      3.79s CPU     10.61s WALL (    2304 calls)
     fftw         :    766.06s CPU   1901.33s WALL ( 1576516 calls)
     davcio       :      2.59s CPU     36.86s WALL (   83058 calls)

     Parallel routines

     PHONON       :  31m 9.82s CPU      1h32m WALL

     INITIALIZATION: 
     phq_setup    :      5.72s CPU     19.21s WALL (      16 calls)
     phq_init     :     24.25s CPU     53.94s WALL (      16 calls)

     phq_init     :     24.25s CPU     53.94s WALL (      16 calls)
     set_drhoc    :     14.18s CPU     28.16s WALL (      48 calls)
     init_vloc    :      0.11s CPU      0.14s WALL (      16 calls)
     init_us_1    :      0.41s CPU      1.03s WALL (      16 calls)
     init_us_2    :      8.84s CPU     19.61s WALL (   18542 calls)

     DYNAMICAL MATRIX:
     dynmat0      :     14.24s CPU     33.68s WALL (      16 calls)
     phqscf       :   1664.04s CPU   4937.87s WALL (      16 calls)
     dynmatrix    :      1.66s CPU      6.11s WALL (      16 calls)

     phqscf       :   1664.04s CPU   4937.87s WALL (      16 calls)
     solve_linter :   1635.74s CPU   4839.65s WALL (      76 calls)
     drhodv       :     14.36s CPU     42.75s WALL (      76 calls)

     dynmat0      :     14.24s CPU     33.68s WALL (      16 calls)
     dynmat_us    :      2.89s CPU      8.05s WALL (      16 calls)
     d2ionq       :      0.16s CPU      0.37s WALL (      16 calls)
     dynmatcc     :      9.66s CPU     19.51s WALL (      16 calls)

     dynmat_us    :      2.89s CPU      8.05s WALL (      16 calls)

     phqscf       :   1664.04s CPU   4937.87s WALL (      16 calls)
     solve_linter :   1635.74s CPU   4839.65s WALL (      76 calls)

     solve_linter :   1635.74s CPU   4839.65s WALL (      76 calls)
     dvqpsi_us    :     14.48s CPU     35.93s WALL (    1848 calls)
     sth_kernel   :   1458.30s CPU   3965.16s WALL (     606 calls)
     apply_dpot_b :     59.81s CPU    148.31s WALL (   13265 calls)
     ortho        :      2.63s CPU      7.00s WALL (   15113 calls)
     cgsolve      :    889.82s CPU   2203.90s WALL (   15113 calls)
     incdrhoscf   :     68.65s CPU    169.57s WALL (   15107 calls)
     dv_of_drho   :      2.53s CPU      7.31s WALL (     736 calls)
     mix_pot      :      3.69s CPU    229.35s WALL (     606 calls)
     psymdvscf    :     15.09s CPU     36.48s WALL (     601 calls)

     dvqpsi_us    :     14.48s CPU     35.93s WALL (    1848 calls)
     dvqpsi_us_on :      1.70s CPU      3.70s WALL (    1848 calls)

     cgsolve      :    889.82s CPU   2203.90s WALL (   15113 calls)
     ch_psi       :    859.66s CPU   2120.68s WALL (  176670 calls)

     ch_psi       :    859.66s CPU   2120.68s WALL (  176670 calls)
     h_psi        :    796.52s CPU   1955.01s WALL (  185914 calls)
     last         :    108.17s CPU    284.55s WALL (  176670 calls)

     h_psi        :    796.52s CPU   1955.01s WALL (  185914 calls)
     add_vuspsi   :     33.28s CPU     79.80s WALL (  185914 calls)

     incdrhoscf   :     68.65s CPU    169.57s WALL (   15107 calls)


      General routines
     calbec       :    129.25s CPU    327.54s WALL (  372994 calls)
     fft          :      4.64s CPU     14.54s WALL (    3721 calls)
     ffts         :      3.79s CPU     10.61s WALL (    2304 calls)
     fftw         :    766.06s CPU   1901.33s WALL ( 1576516 calls)
     davcio       :      2.59s CPU     36.86s WALL (   83058 calls)
     write_rec    :     61.98s CPU    323.30s WALL (     682 calls)


     PHONON       :  31m 9.83s CPU      1h32m WALL


   This run was terminated on:  13: 9:35  30Apr2022            

=------------------------------------------------------------------------------=
   JOB DONE.
=------------------------------------------------------------------------------=
real 5576.08
user 43965.77
sys 21033.56
