Module for intel-oneAPI 2021.4 loaded.
 
:: initializing oneAPI environment ...
   2764113: BASH_VERSION = 4.4.20(1)-release
:: advisor -- latest
:: ccl -- latest
:: clck -- latest
:: compiler -- latest
:: dal -- latest
:: debugger -- latest
:: dev-utilities -- latest
:: dnnl -- latest
:: dpcpp-ct -- latest
:: dpl -- latest
:: inspector -- latest
:: intelpython -- latest
:: ipp -- latest
:: ippcp -- latest
:: ipp -- latest
:: itac -- latest
:: LPOT -- latest
:: mkl -- latest
:: modelzoo -- latest
:: mpi -- latest
:: pytorch -- latest
:: tbb -- latest
:: tensorflow -- latest
:: vpl -- latest
:: vtune -- latest
:: oneAPI environment initialized ::
 

     Program PWSCF v.7.0 starts on 20May2022 at 19:54: 3 

     This program is part of the open-source Quantum ESPRESSO suite
     for quantum simulation of materials; please cite
         "P. Giannozzi et al., J. Phys.:Condens. Matter 21 395502 (2009);
         "P. Giannozzi et al., J. Phys.:Condens. Matter 29 465901 (2017);
         "P. Giannozzi et al., J. Chem. Phys. 152 154105 (2020);
          URL http://www.quantum-espresso.org", 
     in publications or presentations arising from this work. More details at
     http://www.quantum-espresso.org/quote

     Parallel version (MPI), running on    60 processors

     MPI processes distributed on     3 nodes
     K-points division:     npool     =      30
     R & G space division:  proc/nbgrp/npool/nimage =       2
     14639 MiB available memory on the printing compute node when the environment starts
 
     Reading input from in_files/si_ph_bench_poolsize_2_n_procs_60_0.scf

     Current dimensions of program PWSCF are:
     Max number of different atomic species (ntypx) = 10
     Max number of k-points (npk) =  40000
     Max angular momentum in pseudopotentials (lmaxx) =  4
     Message from routine divide_et_impera:
     suboptimal parallelization: some nodes have no k-points

     Subspace diagonalization in iterative solution of the eigenvalue problem:
     a serial algorithm will be used

 
     Parallelization info
     --------------------
     sticks:   dense  smooth     PW     G-vecs:    dense   smooth      PW
     Min         501     501    150                10436    10436    1738
     Max         502     502    151                10439    10439    1741
     Sum        1003    1003    301                20875    20875    3479
 
     Using Slab Decomposition
 


     bravais-lattice index     =            2
     lattice parameter (alat)  =      10.1899  a.u.
     unit-cell volume          =     264.5151 (a.u.)^3
     number of atoms/cell      =            2
     number of atomic types    =            1
     number of electrons       =         8.00
     number of Kohn-Sham states=            4
     kinetic-energy cutoff     =      70.0000  Ry
     charge density cutoff     =     280.0000  Ry
     scf convergence threshold =      1.0E-10
     mixing beta               =       0.7000
     number of iterations used =            8  plain     mixing
     Exchange-correlation= SLA  PW   NOGX NOGC
                           (   1   4   0   0   0   0   0)

     celldm(1)=  10.189905  celldm(2)=   0.000000  celldm(3)=   0.000000
     celldm(4)=   0.000000  celldm(5)=   0.000000  celldm(6)=   0.000000

     crystal axes: (cart. coord. in units of alat)
               a(1) = (  -0.500000   0.000000   0.500000 )  
               a(2) = (   0.000000   0.500000   0.500000 )  
               a(3) = (  -0.500000   0.500000   0.000000 )  

     reciprocal axes: (cart. coord. in units 2 pi/alat)
               b(1) = ( -1.000000 -1.000000  1.000000 )  
               b(2) = (  1.000000  1.000000  1.000000 )  
               b(3) = ( -1.000000  1.000000 -1.000000 )  


     PseudoPot. # 1 for Si read from file:
     ./pseudos/Si.nc.UPF
     MD5 check sum: 9e2d726316af3d4752eea8ab0afbb951
     Pseudo is Norm-conserving + core correction, Zval =  4.0
     Generated using ONCVPSP code by D. R. Hamann
     Using radial grid of 1510 points,  6 beta functions with: 
                l(1) =   0
                l(2) =   0
                l(3) =   1
                l(4) =   1
                l(5) =   2
                l(6) =   2

     atomic species   valence    mass     pseudopotential
        Si             4.00    28.08550     Si( 1.00)

     48 Sym. Ops., with inversion, found (24 have fractional translation)



   Cartesian axes

     site n.     atom                  positions (alat units)
         1           Si  tau(   1) = (   0.0000000   0.0000000   0.0000000  )
         2           Si  tau(   2) = (  -0.2500000   0.2500000   0.2500000  )

     number of k points=    28
                       cart. coord. in units 2pi/alat
        k(    1) = (  -0.0833333   0.0833333   0.0833333), wk =   0.0185185
        k(    2) = (  -0.2500000   0.2500000  -0.0833333), wk =   0.0555556
        k(    3) = (  -0.4166667   0.4166667  -0.2500000), wk =   0.0555556
        k(    4) = (   0.4166667  -0.4166667   0.5833333), wk =   0.0555556
        k(    5) = (   0.2500000  -0.2500000   0.4166667), wk =   0.0555556
        k(    6) = (   0.0833333  -0.0833333   0.2500000), wk =   0.0555556
        k(    7) = (  -0.0833333   0.4166667   0.0833333), wk =   0.0555556
        k(    8) = (  -0.2500000   0.5833333  -0.0833333), wk =   0.1111111
        k(    9) = (   0.5833333  -0.2500000   0.7500000), wk =   0.1111111
        k(   10) = (   0.4166667  -0.0833333   0.5833333), wk =   0.1111111
        k(   11) = (   0.2500000   0.0833333   0.4166667), wk =   0.1111111
        k(   12) = (  -0.0833333   0.7500000   0.0833333), wk =   0.0555556
        k(   13) = (   0.7500000  -0.0833333   0.9166667), wk =   0.1111111
        k(   14) = (   0.5833333   0.0833333   0.7500000), wk =   0.1111111
        k(   15) = (   0.4166667   0.2500000   0.5833333), wk =   0.1111111
        k(   16) = (  -0.0833333  -0.9166667   0.0833333), wk =   0.0555556
        k(   17) = (  -0.2500000  -0.7500000  -0.0833333), wk =   0.1111111
        k(   18) = (  -0.0833333  -0.5833333   0.0833333), wk =   0.0555556
        k(   19) = (  -0.2500000   0.2500000   0.2500000), wk =   0.0185185
        k(   20) = (  -0.4166667   0.4166667   0.0833333), wk =   0.0555556
        k(   21) = (   0.4166667  -0.4166667   0.9166667), wk =   0.0555556
        k(   22) = (   0.2500000  -0.2500000   0.7500000), wk =   0.0555556
        k(   23) = (  -0.2500000   0.5833333   0.2500000), wk =   0.0555556
        k(   24) = (   0.5833333  -0.2500000   1.0833333), wk =   0.1111111
        k(   25) = (   0.4166667  -0.0833333   0.9166667), wk =   0.1111111
        k(   26) = (  -0.2500000  -1.0833333   0.2500000), wk =   0.0555556
        k(   27) = (  -0.4166667   0.4166667   0.4166667), wk =   0.0185185
        k(   28) = (   0.4166667  -0.4166667   1.2500000), wk =   0.0555556

     Dense  grid:    20875 G-vectors     FFT dimensions: (  40,  40,  40)

     Estimated max dynamical RAM per process >       9.00 MB

     Estimated total dynamical RAM >     392.42 MB

     Initial potential from superposition of free atoms

     starting charge       7.9989, renormalised to       8.0000
     Starting wfcs are    8 randomized atomic wfcs

     total cpu time spent up to now is        3.7 secs

     Self-consistent Calculation

     iteration #  1     ecut=    70.00 Ry     beta= 0.70
     Davidson diagonalization with overlap
     ethr =  1.00E-02,  avg # of iterations =  2.0

     Threshold (ethr) on eigenvalues was too large:
     Diagonalizing with lowered threshold

     Davidson diagonalization with overlap
     ethr =  6.10E-04,  avg # of iterations =  2.0

     total cpu time spent up to now is        3.8 secs

     total energy              =     -17.04761784 Ry
     estimated scf accuracy    <       0.05799100 Ry

     iteration #  2     ecut=    70.00 Ry     beta= 0.70
     Davidson diagonalization with overlap
     ethr =  7.25E-04,  avg # of iterations =  1.0

     total cpu time spent up to now is        3.8 secs

     total energy              =     -17.04993932 Ry
     estimated scf accuracy    <       0.00250735 Ry

     iteration #  3     ecut=    70.00 Ry     beta= 0.70
     Davidson diagonalization with overlap
     ethr =  3.13E-05,  avg # of iterations =  3.0

     total cpu time spent up to now is        3.8 secs

     total energy              =     -17.05082195 Ry
     estimated scf accuracy    <       0.00009485 Ry

     iteration #  4     ecut=    70.00 Ry     beta= 0.70
     Davidson diagonalization with overlap
     ethr =  1.19E-06,  avg # of iterations =  4.4

     total cpu time spent up to now is        3.9 secs

     total energy              =     -17.05089798 Ry
     estimated scf accuracy    <       0.00000232 Ry

     iteration #  5     ecut=    70.00 Ry     beta= 0.70
     Davidson diagonalization with overlap
     ethr =  2.90E-08,  avg # of iterations =  5.1

     total cpu time spent up to now is        3.9 secs

     total energy              =     -17.05090101 Ry
     estimated scf accuracy    <       0.00000017 Ry

     iteration #  6     ecut=    70.00 Ry     beta= 0.70
     Davidson diagonalization with overlap
     ethr =  2.19E-09,  avg # of iterations =  2.9

     total cpu time spent up to now is        3.9 secs

     total energy              =     -17.05090106 Ry
     estimated scf accuracy    <       0.00000002 Ry

     iteration #  7     ecut=    70.00 Ry     beta= 0.70
     Davidson diagonalization with overlap
     ethr =  2.63E-10,  avg # of iterations =  3.1

     total cpu time spent up to now is        4.0 secs

     End of self-consistent calculation

          k =-0.0833 0.0833 0.0833 (  2667 PWs)   bands (ev):

    -5.7561   5.3866   6.1106   6.1106

          k =-0.2500 0.2500-0.0833 (  2621 PWs)   bands (ev):

    -5.2692   3.2787   4.8359   5.9020

          k =-0.4167 0.4167-0.2500 (  2618 PWs)   bands (ev):

    -4.1491   0.4558   4.3704   5.2525

          k = 0.4167-0.4167 0.5833 (  2604 PWs)   bands (ev):

    -3.4239  -0.7235   4.4440   4.8612

          k = 0.2500-0.2500 0.4167 (  2618 PWs)   bands (ev):

    -4.5725   1.3222   4.9163   4.9543

          k = 0.0833-0.0833 0.2500 (  2643 PWs)   bands (ev):

    -5.5104   4.3092   5.4447   5.6431

          k =-0.0833 0.4167 0.0833 (  2627 PWs)   bands (ev):

    -5.0231   3.1094   4.6844   4.6977

          k =-0.2500 0.5833-0.0833 (  2613 PWs)   bands (ev):

    -4.0918   1.2428   3.3199   4.3008

          k = 0.5833-0.2500 0.7500 (  2616 PWs)   bands (ev):

    -2.9383  -0.5645   2.7090   4.0652

          k = 0.4167-0.0833 0.5833 (  2617 PWs)   bands (ev):

    -3.6856   0.5301   2.6549   4.5685

          k = 0.2500 0.0833 0.4167 (  2624 PWs)   bands (ev):

    -4.7922   2.2460   4.0374   5.2604

          k =-0.0833 0.7500 0.0833 (  2617 PWs)   bands (ev):

    -3.3664   0.4197   3.2861   3.6484

          k = 0.7500-0.0833 0.9167 (  2608 PWs)   bands (ev):

    -2.1400  -0.9430   2.4039   3.2177

          k = 0.5833 0.0833 0.7500 (  2608 PWs)   bands (ev):

    -2.5099  -0.6178   1.9049   3.7798

          k = 0.4167 0.2500 0.5833 (  2622 PWs)   bands (ev):

    -3.5664  -0.1967   3.6417   4.6731

          k =-0.0833-0.9167 0.0833 (  2604 PWs)   bands (ev):

    -2.2385  -0.9535   3.0091   3.4291

          k =-0.2500-0.7500-0.0833 (  2615 PWs)   bands (ev):

    -3.1914   0.1893   2.7413   3.5675

          k =-0.0833-0.5833 0.0833 (  2620 PWs)   bands (ev):

    -4.3033   1.8031   3.8480   4.0788

          k =-0.2500 0.2500 0.2500 (  2632 PWs)   bands (ev):

    -5.0343   2.2731   5.4857   5.4857

          k =-0.4167 0.4167 0.0833 (  2620 PWs)   bands (ev):

    -4.3392   1.3430   3.2813   5.3165

          k = 0.4167-0.4167 0.9167 (  2613 PWs)   bands (ev):

    -3.1274  -0.1140   2.1362   4.5076

          k = 0.2500-0.2500 0.7500 (  2618 PWs)   bands (ev):

    -3.0761  -0.1941   2.6355   4.0115

          k =-0.2500 0.5833 0.2500 (  2613 PWs)   bands (ev):

    -3.9042   0.5133   3.7736   4.3933

          k = 0.5833-0.2500 1.0833 (  2619 PWs)   bands (ev):

    -2.8765  -0.2149   2.2381   3.5572

          k = 0.4167-0.0833 0.9167 (  2613 PWs)   bands (ev):

    -2.0245  -0.9506   2.0592   2.8637

          k =-0.2500-1.0833 0.2500 (  2605 PWs)   bands (ev):

    -2.2385  -0.8649   1.9289   3.8127

          k =-0.4167 0.4167 0.4167 (  2602 PWs)   bands (ev):

    -3.8074  -0.3119   5.0941   5.0941

          k = 0.4167-0.4167 1.2500 (  2605 PWs)   bands (ev):

    -3.1840  -0.6106   3.2018   4.6388

     highest occupied level (ev):     6.1106

!    total energy              =     -17.05090107 Ry
     estimated scf accuracy    <          4.4E-11 Ry

     The total energy is the sum of the following terms:
     one-electron contribution =       5.01080547 Ry
     hartree contribution      =       1.07710559 Ry
     xc contribution           =      -6.22231085 Ry
     ewald contribution        =     -16.91650128 Ry

     convergence has been achieved in   7 iterations

     Forces acting on atoms (cartesian axes, Ry/au):

     atom    1 type  1   force =     0.00000000   -0.00000000    0.00000000
     atom    2 type  1   force =    -0.00000000    0.00000000   -0.00000000

     Total force =     0.000000     Total SCF correction =     0.000000

     Writing all to output data dir /fastscratch/tsievers/QE_TMP_DIR/si_ph_bench_poolsize_2_n_procs_60_0.save/
 
     init_run     :      0.10s CPU      3.34s WALL (       1 calls)
     electrons    :      0.24s CPU      1.00s WALL (       1 calls)
     forces       :      0.01s CPU      0.01s WALL (       1 calls)

     Called by init_run:
     wfcinit      :      0.01s CPU      2.37s WALL (       1 calls)
     potinit      :      0.01s CPU      0.85s WALL (       1 calls)
     hinit0       :      0.03s CPU      0.06s WALL (       1 calls)

     Called by electrons:
     c_bands      :      0.14s CPU      0.14s WALL (       8 calls)
     sum_band     :      0.05s CPU      0.05s WALL (       8 calls)
     v_of_rho     :      0.03s CPU      0.03s WALL (       8 calls)
     mix_rho      :      0.01s CPU      0.01s WALL (       8 calls)

     Called by c_bands:
     init_us_2    :      0.01s CPU      0.01s WALL (      17 calls)
     init_us_2:cp :      0.01s CPU      0.01s WALL (      17 calls)
     cegterg      :      0.09s CPU      0.09s WALL (       8 calls)

     Called by *egterg:
     cdiaghg      :      0.00s CPU      0.00s WALL (      35 calls)
     h_psi        :      0.09s CPU      0.09s WALL (      37 calls)
     g_psi        :      0.00s CPU      0.00s WALL (      28 calls)

     Called by h_psi:
     h_psi:calbec :      0.01s CPU      0.01s WALL (      37 calls)
     vloc_psi     :      0.08s CPU      0.08s WALL (      37 calls)
     add_vuspsi   :      0.01s CPU      0.01s WALL (      37 calls)

     General routines
     calbec       :      0.01s CPU      0.01s WALL (      41 calls)
     fft          :      0.01s CPU      0.04s WALL (      28 calls)
     ffts         :      0.00s CPU      0.00s WALL (       8 calls)
     fftw         :      0.07s CPU      0.08s WALL (     270 calls)
 
     Parallel routines
 
     PWSCF        :      0.87s CPU      8.34s WALL

 
   This run was terminated on:  19:54:12  20May2022            

=------------------------------------------------------------------------------=
   JOB DONE.
=------------------------------------------------------------------------------=

     Program PHONON v.7.0 starts on 20May2022 at 19:54:16 

     This program is part of the open-source Quantum ESPRESSO suite
     for quantum simulation of materials; please cite
         "P. Giannozzi et al., J. Phys.:Condens. Matter 21 395502 (2009);
         "P. Giannozzi et al., J. Phys.:Condens. Matter 29 465901 (2017);
         "P. Giannozzi et al., J. Chem. Phys. 152 154105 (2020);
          URL http://www.quantum-espresso.org", 
     in publications or presentations arising from this work. More details at
     http://www.quantum-espresso.org/quote

     Parallel version (MPI), running on    60 processors

     MPI processes distributed on     3 nodes
     path-images division:  nimage    =      10
     R & G space division:  proc/nbgrp/npool/nimage =       6
     14633 MiB available memory on the printing compute node when the environment starts
 
     Reading input from in_files/si_ph_bench_poolsize_2_n_procs_60_0.ph
      Title line not specified: using 'default'.

     Reading xml data from directory:

     /fastscratch/tsievers/QE_TMP_DIR/si_ph_bench_poolsize_2_n_procs_60_0.save/

     IMPORTANT: XC functional enforced from input :
     Exchange-correlation= PW
                           (   1   4   0   0   0   0   0)
     Any further DFT definition will be discarded
     Please, verify this is what you really want

 
     Parallelization info
     --------------------
     sticks:   dense  smooth     PW     G-vecs:    dense   smooth      PW
     Min         167     167     50                 3478     3478     579
     Max         168     168     51                 3481     3481     582
     Sum        1003    1003    301                20875    20875    3479
 
     Using Slab Decomposition
 
     Reading collected, re-writing distributed wavefunctions


     Dynamical matrices for ( 6, 6, 6)  uniform grid of q-points
     (  16 q-points):
       N         xq(1)         xq(2)         xq(3) 
       1   0.000000000   0.000000000   0.000000000
       2  -0.166666667   0.166666667  -0.166666667
       3  -0.333333333   0.333333333  -0.333333333
       4   0.500000000  -0.500000000   0.500000000
       5   0.000000000   0.333333333   0.000000000
       6  -0.166666667   0.500000000  -0.166666667
       7   0.666666667  -0.333333333   0.666666667
       8   0.500000000  -0.166666667   0.500000000
       9   0.333333333   0.000000000   0.333333333
      10   0.000000000   0.666666667   0.000000000
      11   0.833333333  -0.166666667   0.833333333
      12   0.666666667  -0.000000000   0.666666667
      13   0.000000000  -1.000000000   0.000000000
      14   0.666666667  -0.333333333   1.000000000
      15   0.500000000  -0.166666667   0.833333333
      16  -0.333333333  -1.000000000   0.000000000

      Image parallelization. There are 10 images and    76 representations
      The estimated total work is  1512 self-consistent (scf) runs
      I am image number     0 and my work is about  147 scf runs. I calculate: 
      q point number     1, representations:
       0 1 2
      q point number     2, representations:
       0 1 2 3 4
      q point number     3, representations:
       0 1 2 3 4
      q point number     4, representations:
       0 1 2 3 4

     Calculation of q =    0.0000000   0.0000000   0.0000000

     default                                                                    

     bravais-lattice index     =            2
     lattice parameter (alat)  =      10.1899  a.u.
     unit-cell volume          =     264.5151 (a.u.)^3
     number of atoms/cell      =            2
     number of atomic types    =            1
     kinetic-energy cut-off    =      70.0000  Ry
     charge density cut-off    =     280.0000  Ry
     convergence threshold     =      1.0E-15
     beta                      =       0.7000
     number of iterations used =            4
     Exchange-correlation= PW
                           (   1   4   0   0   0   0   0)


     celldm(1)=   10.18990  celldm(2)=    0.00000  celldm(3)=    0.00000
     celldm(4)=    0.00000  celldm(5)=    0.00000  celldm(6)=    0.00000

     crystal axes: (cart. coord. in units of alat)
               a(1) = ( -0.5000  0.0000  0.5000 )  
               a(2) = (  0.0000  0.5000  0.5000 )  
               a(3) = ( -0.5000  0.5000  0.0000 )  

     reciprocal axes: (cart. coord. in units 2 pi/alat)
               b(1) = ( -1.0000 -1.0000  1.0000 )  
               b(2) = (  1.0000  1.0000  1.0000 )  
               b(3) = ( -1.0000  1.0000 -1.0000 )  


     Atoms inside the unit cell: 

     Cartesian axes

     site n.  atom      mass           positions (alat units)
        1     Si  28.0855   tau(    1) = (    0.00000    0.00000    0.00000  )
        2     Si  28.0855   tau(    2) = (   -0.25000    0.25000    0.25000  )

     Computing dynamical matrix for 
                    q = (   0.0000000   0.0000000   0.0000000 )
 
     49 Sym.Ops. (with q -> -q+G )


     G cutoff =  736.4420  (   3479 G-vectors)     FFT grid: ( 40, 40, 40)
     number of k points=    28

     PseudoPot. # 1 for Si read from file:
     ./pseudos/Si.nc.UPF
     MD5 check sum: 9e2d726316af3d4752eea8ab0afbb951
     Pseudo is Norm-conserving + core correction, Zval =  4.0
     Generated using ONCVPSP code by D. R. Hamann
     Using radial grid of 1510 points,  6 beta functions with: 
                l(1) =   0
                l(2) =   0
                l(3) =   1
                l(4) =   1
                l(5) =   2
                l(6) =   2

     Mode symmetry, O_h (m-3m)  point group:


     Electric field:
     Dielectric constant
     Born effective charges in two ways 


     Atomic displacements:
     There are    2 irreducible representations

     Representation     1      3 modes -  To be done

     Representation     2      3 modes -  To be done



     Alpha used in Ewald sum =   2.8000
     PHONON       :     11.70s CPU     43.37s WALL


     Electric Fields Calculation

      iter #   1 total cpu time :    51.9 secs   av.it.:   6.5
      thresh= 1.000E-02 alpha_mix =  0.700 |ddv_scf|^2 =  1.044E-07

      iter #   2 total cpu time :    57.5 secs   av.it.:  11.7
      thresh= 3.230E-05 alpha_mix =  0.700 |ddv_scf|^2 =  4.472E-09

      iter #   3 total cpu time :    63.1 secs   av.it.:  11.6
      thresh= 6.688E-06 alpha_mix =  0.700 |ddv_scf|^2 =  5.041E-11

      iter #   4 total cpu time :    66.1 secs   av.it.:  11.9
      thresh= 7.100E-07 alpha_mix =  0.700 |ddv_scf|^2 =  2.991E-13

      iter #   5 total cpu time :    67.7 secs   av.it.:  10.9
      thresh= 5.469E-08 alpha_mix =  0.700 |ddv_scf|^2 =  1.097E-16

     End of electric fields calculation

          Dielectric constant in cartesian axis 

          (      13.312095404       0.000000000      -0.000000000 )
          (       0.000000000      13.312095404      -0.000000000 )
          (      -0.000000000      -0.000000000      13.312095404 )

          Effective charges (d Force / dE) in cartesian axis without acoustic sum rule applied (asr)

           atom      1   Si Mean Z*:       -0.00677
      Ex  (       -0.00677        0.00000       -0.00000 )
      Ey  (        0.00000       -0.00677       -0.00000 )
      Ez  (        0.00000       -0.00000       -0.00677 )
           atom      2   Si Mean Z*:       -0.00677
      Ex  (       -0.00677        0.00000        0.00000 )
      Ey  (        0.00000       -0.00677        0.00000 )
      Ez  (        0.00000        0.00000       -0.00677 )

          Effective charges Sum: Mean:       -0.01353
             -0.01353        0.00000        0.00000
              0.00000       -0.01353        0.00000
              0.00000        0.00000       -0.01353

          Effective charges (d Force / dE) in cartesian axis with asr applied: 
           atom      1   Si Mean Z*:        0.00000
      E*x (       -0.00000       -0.00000       -0.00000 )
      E*y (        0.00000        0.00000       -0.00000 )
      E*z (       -0.00000       -0.00000        0.00000 )
           atom      2   Si Mean Z*:        0.00000
      E*x (        0.00000        0.00000        0.00000 )
      E*y (       -0.00000       -0.00000        0.00000 )
      E*z (        0.00000        0.00000        0.00000 )


     Representation #   1 modes #   1   2   3

     Self-consistent Calculation

      iter #   1 total cpu time :    73.0 secs   av.it.:   5.8
      thresh= 1.000E-02 alpha_mix =  0.700 |ddv_scf|^2 =  1.504E-08

      iter #   2 total cpu time :    77.9 secs   av.it.:  11.7
      thresh= 1.227E-05 alpha_mix =  0.700 |ddv_scf|^2 =  3.381E-10

      iter #   3 total cpu time :    82.0 secs   av.it.:  11.7
      thresh= 1.839E-06 alpha_mix =  0.700 |ddv_scf|^2 =  1.262E-11

      iter #   4 total cpu time :    85.7 secs   av.it.:  11.5
      thresh= 3.552E-07 alpha_mix =  0.700 |ddv_scf|^2 =  4.086E-14

      iter #   5 total cpu time :    87.9 secs   av.it.:  11.8
      thresh= 2.022E-08 alpha_mix =  0.700 |ddv_scf|^2 =  1.897E-16

     End of self-consistent calculation

     Convergence has been achieved 


     Representation #   2 modes #   4   5   6

     Self-consistent Calculation

      iter #   1 total cpu time :    89.4 secs   av.it.:   6.0
      thresh= 1.000E-02 alpha_mix =  0.700 |ddv_scf|^2 =  1.086E-08

      iter #   2 total cpu time :    91.3 secs   av.it.:  11.9
      thresh= 1.042E-05 alpha_mix =  0.700 |ddv_scf|^2 =  3.904E-10

      iter #   3 total cpu time :    93.6 secs   av.it.:  11.8
      thresh= 1.976E-06 alpha_mix =  0.700 |ddv_scf|^2 =  1.777E-11

      iter #   4 total cpu time :    96.0 secs   av.it.:  11.8
      thresh= 4.216E-07 alpha_mix =  0.700 |ddv_scf|^2 =  3.182E-14

      iter #   5 total cpu time :    98.3 secs   av.it.:  11.9
      thresh= 1.784E-08 alpha_mix =  0.700 |ddv_scf|^2 =  8.572E-17

     End of self-consistent calculation

     Convergence has been achieved 
 
     Number of q in the star =    1
     List of q in the star:
          1   0.000000000   0.000000000   0.000000000

          Dielectric constant in cartesian axis 

          (      13.312095404       0.000000000      -0.000000000 )
          (       0.000000000      13.312095404      -0.000000000 )
          (      -0.000000000      -0.000000000      13.312095404 )

          Effective charges (d Force / dE) in cartesian axis without acoustic sum rule applied (asr)

           atom      1   Si Mean Z*:       -0.00677
      Ex  (       -0.00677        0.00000       -0.00000 )
      Ey  (        0.00000       -0.00677       -0.00000 )
      Ez  (        0.00000       -0.00000       -0.00677 )
           atom      2   Si Mean Z*:       -0.00677
      Ex  (       -0.00677        0.00000        0.00000 )
      Ey  (        0.00000       -0.00677        0.00000 )
      Ez  (        0.00000        0.00000       -0.00677 )

          Effective charges Sum: Mean:       -0.01353
             -0.01353        0.00000        0.00000
              0.00000       -0.01353        0.00000
              0.00000        0.00000       -0.01353

          Effective charges (d Force / dE) in cartesian axis with asr applied: 
           atom      1   Si Mean Z*:        0.00000
      E*x (       -0.00000       -0.00000       -0.00000 )
      E*y (        0.00000        0.00000       -0.00000 )
      E*z (       -0.00000       -0.00000        0.00000 )
           atom      2   Si Mean Z*:        0.00000
      E*x (        0.00000        0.00000        0.00000 )
      E*y (       -0.00000       -0.00000        0.00000 )
      E*z (        0.00000        0.00000        0.00000 )

          Effective charges (d P / du) in cartesian axis 

           atom      1   Si 
      Px  (       -0.00683        0.00000        0.00000 )
      Py  (        0.00000       -0.00683       -0.00000 )
      Pz  (        0.00000       -0.00000       -0.00683 )
           atom      2   Si 
      Px  (       -0.00683       -0.00000       -0.00000 )
      Py  (       -0.00000       -0.00683        0.00000 )
      Pz  (       -0.00000        0.00000       -0.00683 )

     Diagonalizing the dynamical matrix

     q = (    0.000000000   0.000000000   0.000000000 ) 

 **************************************************************************
     freq (    1) =      -0.114905 [THz] =      -3.832833 [cm-1]
     freq (    2) =      -0.114905 [THz] =      -3.832833 [cm-1]
     freq (    3) =      -0.114905 [THz] =      -3.832833 [cm-1]
     freq (    4) =      15.412107 [THz] =     514.092557 [cm-1]
     freq (    5) =      15.412107 [THz] =     514.092557 [cm-1]
     freq (    6) =      15.412107 [THz] =     514.092557 [cm-1]
 **************************************************************************

     Mode symmetry, O_h (m-3m)  point group:

     freq (   1-   3) =         -3.8  [cm-1]   --> T_1u G_15  G_4- I  
     freq (   4-   6) =        514.1  [cm-1]   --> T_2g G_25' G_5+ R  

     Calculation of q =   -0.1666667   0.1666667  -0.1666667

     Subspace diagonalization in iterative solution of the eigenvalue problem:
     one sub-group per band group will be used
     scalapack distributed-memory algorithm (size of sub-group:  2*  2 procs)

 
     Parallelization info
     --------------------
     sticks:   dense  smooth     PW     G-vecs:    dense   smooth      PW
     Min         167     167     52                 3478     3478     615
     Max         168     168     53                 3481     3481     618
     Sum        1003    1003    313                20875    20875    3695
 
     Using Slab Decomposition
 

     Title: 
     default                                                                    


     bravais-lattice index     =            2
     lattice parameter (alat)  =      10.1899  a.u.
     unit-cell volume          =     264.5151 (a.u.)^3
     number of atoms/cell      =            2
     number of atomic types    =            1
     number of electrons       =         8.00
     number of Kohn-Sham states=            4
     kinetic-energy cutoff     =      70.0000  Ry
     charge density cutoff     =     280.0000  Ry
     Exchange-correlation= PW
                           (   1   4   0   0   0   0   0)

     celldm(1)=  10.189905  celldm(2)=   0.000000  celldm(3)=   0.000000
     celldm(4)=   0.000000  celldm(5)=   0.000000  celldm(6)=   0.000000

     crystal axes: (cart. coord. in units of alat)
               a(1) = (  -0.500000   0.000000   0.500000 )  
               a(2) = (   0.000000   0.500000   0.500000 )  
               a(3) = (  -0.500000   0.500000   0.000000 )  

     reciprocal axes: (cart. coord. in units 2 pi/alat)
               b(1) = ( -1.000000 -1.000000  1.000000 )  
               b(2) = (  1.000000  1.000000  1.000000 )  
               b(3) = ( -1.000000  1.000000 -1.000000 )  


     PseudoPot. # 1 for Si read from file:
     ./pseudos/Si.nc.UPF
     MD5 check sum: 9e2d726316af3d4752eea8ab0afbb951
     Pseudo is Norm-conserving + core correction, Zval =  4.0
     Generated using ONCVPSP code by D. R. Hamann
     Using radial grid of 1510 points,  6 beta functions with: 
                l(1) =   0
                l(2) =   0
                l(3) =   1
                l(4) =   1
                l(5) =   2
                l(6) =   2

     atomic species   valence    mass     pseudopotential
        Si             4.00    28.08550     Si( 1.00)

     48 Sym. Ops., with inversion, found



   Cartesian axes

     site n.     atom                  positions (alat units)
         1           Si  tau(   1) = (   0.0000000   0.0000000   0.0000000  )
         2           Si  tau(   2) = (  -0.2500000   0.2500000   0.2500000  )

     number of k points=   364

     Number of k-points >= 100: set verbosity='high' to print them.

     Dense  grid:    20875 G-vectors     FFT dimensions: (  40,  40,  40)

     Estimated max dynamical RAM per process >       3.07 MB

     Estimated total dynamical RAM >      18.43 MB

     The potential is recalculated from file :
     /fastscratch/tsievers/QE_TMP_DIR/_ph0/si_ph_bench_poolsize_2_n_procs_60_0.save/charge-density

     Starting wfcs are    8 atomic wfcs

     Band Structure Calculation
     Davidson diagonalization with overlap

     ethr =  1.25E-10,  avg # of iterations = 12.9

     total cpu time spent up to now is      140.7 secs

     End of band structure calculation

     Number of k-points >= 100: set verbosity='high' to print the bands.

     highest occupied level (ev):     6.1106

     Writing config to output data dir /fastscratch/tsievers/QE_TMP_DIR/_ph0/si_ph_bench_poolsize_2_n_procs_60_0.save/

     default                                                                    

     bravais-lattice index     =            2
     lattice parameter (alat)  =      10.1899  a.u.
     unit-cell volume          =     264.5151 (a.u.)^3
     number of atoms/cell      =            2
     number of atomic types    =            1
     kinetic-energy cut-off    =      70.0000  Ry
     charge density cut-off    =     280.0000  Ry
     convergence threshold     =      1.0E-15
     beta                      =       0.7000
     number of iterations used =            4
     Exchange-correlation= PW
                           (   1   4   0   0   0   0   0)


     celldm(1)=   10.18990  celldm(2)=    0.00000  celldm(3)=    0.00000
     celldm(4)=    0.00000  celldm(5)=    0.00000  celldm(6)=    0.00000

     crystal axes: (cart. coord. in units of alat)
               a(1) = ( -0.5000  0.0000  0.5000 )  
               a(2) = (  0.0000  0.5000  0.5000 )  
               a(3) = ( -0.5000  0.5000  0.0000 )  

     reciprocal axes: (cart. coord. in units 2 pi/alat)
               b(1) = ( -1.0000 -1.0000  1.0000 )  
               b(2) = (  1.0000  1.0000  1.0000 )  
               b(3) = ( -1.0000  1.0000 -1.0000 )  


     Atoms inside the unit cell: 

     Cartesian axes

     site n.  atom      mass           positions (alat units)
        1     Si  28.0855   tau(    1) = (    0.00000    0.00000    0.00000  )
        2     Si  28.0855   tau(    2) = (   -0.25000    0.25000    0.25000  )

     Computing dynamical matrix for 
                    q = (  -0.1666667   0.1666667  -0.1666667 )
 
      6 Sym.Ops. (no q -> -q+G )


     G cutoff =  736.4420  (   3481 G-vectors)     FFT grid: ( 40, 40, 40)
     number of k points=   364

     PseudoPot. # 1 for Si read from file:
     ./pseudos/Si.nc.UPF
     MD5 check sum: 9e2d726316af3d4752eea8ab0afbb951
     Pseudo is Norm-conserving + core correction, Zval =  4.0
     Generated using ONCVPSP code by D. R. Hamann
     Using radial grid of 1510 points,  6 beta functions with: 
                l(1) =   0
                l(2) =   0
                l(3) =   1
                l(4) =   1
                l(5) =   2
                l(6) =   2

     Mode symmetry, C_3v (3m)   point group:


     Atomic displacements:
     There are    4 irreducible representations

     Representation     1      1 modes -  To be done

     Representation     2      1 modes -  To be done

     Representation     3      2 modes -  To be done

     Representation     4      2 modes -  To be done



     Alpha used in Ewald sum =   2.8000
     PHONON       :   3m 1.28s CPU   4m 8.03s WALL



     Representation #   1 mode #   1

     Self-consistent Calculation

      iter #   1 total cpu time :   250.3 secs   av.it.:   6.6
      thresh= 1.000E-02 alpha_mix =  0.700 |ddv_scf|^2 =  1.408E-03

      iter #   2 total cpu time :   256.2 secs   av.it.:   8.9
      thresh= 3.752E-03 alpha_mix =  0.700 |ddv_scf|^2 =  4.612E-02

      iter #   3 total cpu time :   260.2 secs   av.it.:   7.6
      thresh= 1.000E-02 alpha_mix =  0.700 |ddv_scf|^2 =  3.753E-07

      iter #   4 total cpu time :   262.8 secs   av.it.:   9.1
      thresh= 6.126E-05 alpha_mix =  0.700 |ddv_scf|^2 =  1.230E-08

      iter #   5 total cpu time :   266.0 secs   av.it.:   9.5
      thresh= 1.109E-05 alpha_mix =  0.700 |ddv_scf|^2 =  7.872E-10

      iter #   6 total cpu time :   268.4 secs   av.it.:   8.4
      thresh= 2.806E-06 alpha_mix =  0.700 |ddv_scf|^2 =  1.466E-09

      iter #   7 total cpu time :   272.2 secs   av.it.:   8.0
      thresh= 3.828E-06 alpha_mix =  0.700 |ddv_scf|^2 =  8.484E-11

      iter #   8 total cpu time :   289.0 secs   av.it.:   8.4
      thresh= 9.211E-07 alpha_mix =  0.700 |ddv_scf|^2 =  6.763E-13

      iter #   9 total cpu time :   295.6 secs   av.it.:   8.2
      thresh= 8.224E-08 alpha_mix =  0.700 |ddv_scf|^2 =  1.517E-14

      iter #  10 total cpu time :   304.8 secs   av.it.:   8.5
      thresh= 1.232E-08 alpha_mix =  0.700 |ddv_scf|^2 =  1.403E-15

      iter #  11 total cpu time :   313.0 secs   av.it.:   9.0
      thresh= 3.746E-09 alpha_mix =  0.700 |ddv_scf|^2 =  2.063E-16

     End of self-consistent calculation

     Convergence has been achieved 


     Representation #   2 mode #   2

     Self-consistent Calculation

      iter #   1 total cpu time :   316.6 secs   av.it.:   6.6
      thresh= 1.000E-02 alpha_mix =  0.700 |ddv_scf|^2 =  1.408E-03

      iter #   2 total cpu time :   320.2 secs   av.it.:   8.9
      thresh= 3.752E-03 alpha_mix =  0.700 |ddv_scf|^2 =  4.612E-02

      iter #   3 total cpu time :   322.9 secs   av.it.:   7.6
      thresh= 1.000E-02 alpha_mix =  0.700 |ddv_scf|^2 =  3.753E-07

      iter #   4 total cpu time :   326.1 secs   av.it.:   9.1
      thresh= 6.126E-05 alpha_mix =  0.700 |ddv_scf|^2 =  1.230E-08

      iter #   5 total cpu time :   329.1 secs   av.it.:   9.5
      thresh= 1.109E-05 alpha_mix =  0.700 |ddv_scf|^2 =  7.872E-10

      iter #   6 total cpu time :   331.5 secs   av.it.:   8.4
      thresh= 2.806E-06 alpha_mix =  0.700 |ddv_scf|^2 =  1.466E-09

      iter #   7 total cpu time :   336.5 secs   av.it.:   8.0
      thresh= 3.828E-06 alpha_mix =  0.700 |ddv_scf|^2 =  8.484E-11

      iter #   8 total cpu time :   359.5 secs   av.it.:   8.4
      thresh= 9.211E-07 alpha_mix =  0.700 |ddv_scf|^2 =  6.762E-13

      iter #   9 total cpu time :   380.0 secs   av.it.:   8.2
      thresh= 8.223E-08 alpha_mix =  0.700 |ddv_scf|^2 =  1.517E-14

      iter #  10 total cpu time :   394.0 secs   av.it.:   8.5
      thresh= 1.232E-08 alpha_mix =  0.700 |ddv_scf|^2 =  1.402E-15

      iter #  11 total cpu time :   400.8 secs   av.it.:   9.0
      thresh= 3.745E-09 alpha_mix =  0.700 |ddv_scf|^2 =  2.064E-16

     End of self-consistent calculation

     Convergence has been achieved 


     Representation #   3 modes #   3   4

     Self-consistent Calculation

      iter #   1 total cpu time :   418.7 secs   av.it.:   6.1
      thresh= 1.000E-02 alpha_mix =  0.700 |ddv_scf|^2 =  3.672E-08

      iter #   2 total cpu time :   429.3 secs   av.it.:  11.4
      thresh= 1.916E-05 alpha_mix =  0.700 |ddv_scf|^2 =  1.634E-09

      iter #   3 total cpu time :   437.0 secs   av.it.:  11.3
      thresh= 4.042E-06 alpha_mix =  0.700 |ddv_scf|^2 =  4.267E-11

      iter #   4 total cpu time :   446.9 secs   av.it.:  11.4
      thresh= 6.532E-07 alpha_mix =  0.700 |ddv_scf|^2 =  4.923E-13

      iter #   5 total cpu time :   456.6 secs   av.it.:  11.4
      thresh= 7.016E-08 alpha_mix =  0.700 |ddv_scf|^2 =  1.045E-14

      iter #   6 total cpu time :   464.0 secs   av.it.:  11.6
      thresh= 1.022E-08 alpha_mix =  0.700 |ddv_scf|^2 =  4.745E-17

     End of self-consistent calculation

     Convergence has been achieved 


     Representation #   4 modes #   5   6

     Self-consistent Calculation

      iter #   1 total cpu time :   471.4 secs   av.it.:   6.0
      thresh= 1.000E-02 alpha_mix =  0.700 |ddv_scf|^2 =  3.672E-08

      iter #   2 total cpu time :   507.5 secs   av.it.:  11.4
      thresh= 1.916E-05 alpha_mix =  0.700 |ddv_scf|^2 =  1.634E-09

      iter #   3 total cpu time :   542.1 secs   av.it.:  11.3
      thresh= 4.043E-06 alpha_mix =  0.700 |ddv_scf|^2 =  4.267E-11

      iter #   4 total cpu time :   553.5 secs   av.it.:  11.4
      thresh= 6.532E-07 alpha_mix =  0.700 |ddv_scf|^2 =  4.925E-13

      iter #   5 total cpu time :   561.1 secs   av.it.:  11.3
      thresh= 7.018E-08 alpha_mix =  0.700 |ddv_scf|^2 =  1.046E-14

      iter #   6 total cpu time :   591.0 secs   av.it.:  11.6
      thresh= 1.023E-08 alpha_mix =  0.700 |ddv_scf|^2 =  4.742E-17

     End of self-consistent calculation

     Convergence has been achieved 
 
     Number of q in the star =    8
     List of q in the star:
          1  -0.166666667   0.166666667  -0.166666667
          2   0.166666667   0.166666667   0.166666667
          3  -0.166666667  -0.166666667  -0.166666667
          4   0.166666667  -0.166666667   0.166666667
          5   0.166666667  -0.166666667  -0.166666667
          6   0.166666667   0.166666667  -0.166666667
          7  -0.166666667  -0.166666667   0.166666667
          8  -0.166666667   0.166666667   0.166666667

     Diagonalizing the dynamical matrix

     q = (   -0.166666667   0.166666667  -0.166666667 ) 

 **************************************************************************
     freq (    1) =       2.202755 [THz] =      73.475983 [cm-1]
     freq (    2) =       2.202755 [THz] =      73.475983 [cm-1]
     freq (    3) =       4.748081 [THz] =     158.378950 [cm-1]
     freq (    4) =      15.023906 [THz] =     501.143573 [cm-1]
     freq (    5) =      15.065889 [THz] =     502.543970 [cm-1]
     freq (    6) =      15.065889 [THz] =     502.543970 [cm-1]
 **************************************************************************

     Mode symmetry, C_3v (3m)   point group:

     freq (   1-   2) =         73.5  [cm-1]   --> E    L_3           
     freq (   3-   3) =        158.4  [cm-1]   --> A_1  L_1           
     freq (   4-   4) =        501.1  [cm-1]   --> A_1  L_1           
     freq (   5-   6) =        502.5  [cm-1]   --> E    L_3           

     Calculation of q =   -0.3333333   0.3333333  -0.3333333
 
     Parallelization info
     --------------------
     sticks:   dense  smooth     PW     G-vecs:    dense   smooth      PW
     Min         167     167     52                 3478     3478     639
     Max         168     168     53                 3481     3481     644
     Sum        1003    1003    313                20875    20875    3839
 
     Using Slab Decomposition
 

     Title: 
     default                                                                    


     bravais-lattice index     =            2
     lattice parameter (alat)  =      10.1899  a.u.
     unit-cell volume          =     264.5151 (a.u.)^3
     number of atoms/cell      =            2
     number of atomic types    =            1
     number of electrons       =         8.00
     number of Kohn-Sham states=            4
     kinetic-energy cutoff     =      70.0000  Ry
     charge density cutoff     =     280.0000  Ry
     Exchange-correlation= PW
                           (   1   4   0   0   0   0   0)

     celldm(1)=  10.189905  celldm(2)=   0.000000  celldm(3)=   0.000000
     celldm(4)=   0.000000  celldm(5)=   0.000000  celldm(6)=   0.000000

     crystal axes: (cart. coord. in units of alat)
               a(1) = (  -0.500000   0.000000   0.500000 )  
               a(2) = (   0.000000   0.500000   0.500000 )  
               a(3) = (  -0.500000   0.500000   0.000000 )  

     reciprocal axes: (cart. coord. in units 2 pi/alat)
               b(1) = ( -1.000000 -1.000000  1.000000 )  
               b(2) = (  1.000000  1.000000  1.000000 )  
               b(3) = ( -1.000000  1.000000 -1.000000 )  


     PseudoPot. # 1 for Si read from file:
     ./pseudos/Si.nc.UPF
     MD5 check sum: 9e2d726316af3d4752eea8ab0afbb951
     Pseudo is Norm-conserving + core correction, Zval =  4.0
     Generated using ONCVPSP code by D. R. Hamann
     Using radial grid of 1510 points,  6 beta functions with: 
                l(1) =   0
                l(2) =   0
                l(3) =   1
                l(4) =   1
                l(5) =   2
                l(6) =   2

     atomic species   valence    mass     pseudopotential
        Si             4.00    28.08550     Si( 1.00)

     48 Sym. Ops., with inversion, found



   Cartesian axes

     site n.     atom                  positions (alat units)
         1           Si  tau(   1) = (   0.0000000   0.0000000   0.0000000  )
         2           Si  tau(   2) = (  -0.2500000   0.2500000   0.2500000  )

     number of k points=   364

     Number of k-points >= 100: set verbosity='high' to print them.

     Dense  grid:    20875 G-vectors     FFT dimensions: (  40,  40,  40)

     Estimated max dynamical RAM per process >       3.09 MB

     Estimated total dynamical RAM >      18.51 MB

     The potential is recalculated from file :
     /fastscratch/tsievers/QE_TMP_DIR/_ph0/si_ph_bench_poolsize_2_n_procs_60_0.save/charge-density

     Starting wfcs are    8 atomic wfcs

     Band Structure Calculation
     Davidson diagonalization with overlap

     ethr =  1.25E-10,  avg # of iterations = 12.9

     total cpu time spent up to now is      152.4 secs

     End of band structure calculation

     Number of k-points >= 100: set verbosity='high' to print the bands.

     highest occupied level (ev):     6.1106

     Writing config to output data dir /fastscratch/tsievers/QE_TMP_DIR/_ph0/si_ph_bench_poolsize_2_n_procs_60_0.save/

     default                                                                    

     bravais-lattice index     =            2
     lattice parameter (alat)  =      10.1899  a.u.
     unit-cell volume          =     264.5151 (a.u.)^3
     number of atoms/cell      =            2
     number of atomic types    =            1
     kinetic-energy cut-off    =      70.0000  Ry
     charge density cut-off    =     280.0000  Ry
     convergence threshold     =      1.0E-15
     beta                      =       0.7000
     number of iterations used =            4
     Exchange-correlation= PW
                           (   1   4   0   0   0   0   0)


     celldm(1)=   10.18990  celldm(2)=    0.00000  celldm(3)=    0.00000
     celldm(4)=    0.00000  celldm(5)=    0.00000  celldm(6)=    0.00000

     crystal axes: (cart. coord. in units of alat)
               a(1) = ( -0.5000  0.0000  0.5000 )  
               a(2) = (  0.0000  0.5000  0.5000 )  
               a(3) = ( -0.5000  0.5000  0.0000 )  

     reciprocal axes: (cart. coord. in units 2 pi/alat)
               b(1) = ( -1.0000 -1.0000  1.0000 )  
               b(2) = (  1.0000  1.0000  1.0000 )  
               b(3) = ( -1.0000  1.0000 -1.0000 )  


     Atoms inside the unit cell: 

     Cartesian axes

     site n.  atom      mass           positions (alat units)
        1     Si  28.0855   tau(    1) = (    0.00000    0.00000    0.00000  )
        2     Si  28.0855   tau(    2) = (   -0.25000    0.25000    0.25000  )

     Computing dynamical matrix for 
                    q = (  -0.3333333   0.3333333  -0.3333333 )
 
      6 Sym.Ops. (no q -> -q+G )


     G cutoff =  736.4420  (   3479 G-vectors)     FFT grid: ( 40, 40, 40)
     number of k points=   364

     PseudoPot. # 1 for Si read from file:
     ./pseudos/Si.nc.UPF
     MD5 check sum: 9e2d726316af3d4752eea8ab0afbb951
     Pseudo is Norm-conserving + core correction, Zval =  4.0
     Generated using ONCVPSP code by D. R. Hamann
     Using radial grid of 1510 points,  6 beta functions with: 
                l(1) =   0
                l(2) =   0
                l(3) =   1
                l(4) =   1
                l(5) =   2
                l(6) =   2

     Mode symmetry, C_3v (3m)   point group:


     Atomic displacements:
     There are    4 irreducible representations

     Representation     1      1 modes -  To be done

     Representation     2      1 modes -  To be done

     Representation     3      2 modes -  To be done

     Representation     4      2 modes -  To be done



     Alpha used in Ewald sum =   2.8000
     PHONON       :   6m 8.16s CPU  10m29.33s WALL



     Representation #   1 mode #   1

     Self-consistent Calculation

      iter #   1 total cpu time :   631.4 secs   av.it.:   6.5
      thresh= 1.000E-02 alpha_mix =  0.700 |ddv_scf|^2 =  8.913E-05

      iter #   2 total cpu time :   636.2 secs   av.it.:   9.7
      thresh= 9.441E-04 alpha_mix =  0.700 |ddv_scf|^2 =  7.113E-04

      iter #   3 total cpu time :   640.7 secs   av.it.:   8.3
      thresh= 2.667E-03 alpha_mix =  0.700 |ddv_scf|^2 =  1.309E-07

      iter #   4 total cpu time :   643.6 secs   av.it.:   9.9
      thresh= 3.618E-05 alpha_mix =  0.700 |ddv_scf|^2 =  2.660E-09

      iter #   5 total cpu time :   646.9 secs   av.it.:   9.9
      thresh= 5.157E-06 alpha_mix =  0.700 |ddv_scf|^2 =  2.821E-11

      iter #   6 total cpu time :   655.0 secs   av.it.:  10.5
      thresh= 5.312E-07 alpha_mix =  0.700 |ddv_scf|^2 =  2.884E-12

      iter #   7 total cpu time :   660.7 secs   av.it.:  10.3
      thresh= 1.698E-07 alpha_mix =  0.700 |ddv_scf|^2 =  2.119E-12

      iter #   8 total cpu time :   684.2 secs   av.it.:   9.4
      thresh= 1.456E-07 alpha_mix =  0.700 |ddv_scf|^2 =  2.219E-12

      iter #   9 total cpu time :   707.9 secs   av.it.:   9.0
      thresh= 1.490E-07 alpha_mix =  0.700 |ddv_scf|^2 =  2.873E-13

      iter #  10 total cpu time :   716.0 secs   av.it.:   9.0
      thresh= 5.360E-08 alpha_mix =  0.700 |ddv_scf|^2 =  1.729E-15

      iter #  11 total cpu time :   721.1 secs   av.it.:   9.7
      thresh= 4.158E-09 alpha_mix =  0.700 |ddv_scf|^2 =  1.627E-16

     End of self-consistent calculation

     Convergence has been achieved 


     Representation #   2 mode #   2

     Self-consistent Calculation

      iter #   1 total cpu time :   726.3 secs   av.it.:   6.5
      thresh= 1.000E-02 alpha_mix =  0.700 |ddv_scf|^2 =  8.913E-05

      iter #   2 total cpu time :   729.9 secs   av.it.:   9.7
      thresh= 9.441E-04 alpha_mix =  0.700 |ddv_scf|^2 =  7.113E-04

      iter #   3 total cpu time :   736.3 secs   av.it.:   8.3
      thresh= 2.667E-03 alpha_mix =  0.700 |ddv_scf|^2 =  1.309E-07

      iter #   4 total cpu time :   739.3 secs   av.it.:   9.9
      thresh= 3.618E-05 alpha_mix =  0.700 |ddv_scf|^2 =  2.660E-09

      iter #   5 total cpu time :   745.1 secs   av.it.:   9.9
      thresh= 5.157E-06 alpha_mix =  0.700 |ddv_scf|^2 =  2.821E-11

      iter #   6 total cpu time :   748.3 secs   av.it.:  10.5
      thresh= 5.312E-07 alpha_mix =  0.700 |ddv_scf|^2 =  2.884E-12

      iter #   7 total cpu time :   751.2 secs   av.it.:  10.3
      thresh= 1.698E-07 alpha_mix =  0.700 |ddv_scf|^2 =  2.119E-12

      iter #   8 total cpu time :   756.1 secs   av.it.:   9.4
      thresh= 1.456E-07 alpha_mix =  0.700 |ddv_scf|^2 =  2.219E-12

      iter #   9 total cpu time :   765.2 secs   av.it.:   9.0
      thresh= 1.490E-07 alpha_mix =  0.700 |ddv_scf|^2 =  2.873E-13

      iter #  10 total cpu time :   789.5 secs   av.it.:   9.0
      thresh= 5.360E-08 alpha_mix =  0.700 |ddv_scf|^2 =  1.729E-15

      iter #  11 total cpu time :   800.4 secs   av.it.:   9.7
      thresh= 4.158E-09 alpha_mix =  0.700 |ddv_scf|^2 =  1.627E-16

     End of self-consistent calculation

     Convergence has been achieved 


     Representation #   3 modes #   3   4

     Self-consistent Calculation

      iter #   1 total cpu time :   829.3 secs   av.it.:   6.1
      thresh= 1.000E-02 alpha_mix =  0.700 |ddv_scf|^2 =  5.001E-08

      iter #   2 total cpu time :   849.8 secs   av.it.:  11.4
      thresh= 2.236E-05 alpha_mix =  0.700 |ddv_scf|^2 =  3.464E-09

      iter #   3 total cpu time :   878.5 secs   av.it.:  11.2
      thresh= 5.886E-06 alpha_mix =  0.700 |ddv_scf|^2 =  5.016E-11

      iter #   4 total cpu time :   888.3 secs   av.it.:  11.4
      thresh= 7.082E-07 alpha_mix =  0.700 |ddv_scf|^2 =  5.031E-13

      iter #   5 total cpu time :   897.8 secs   av.it.:  11.4
      thresh= 7.093E-08 alpha_mix =  0.700 |ddv_scf|^2 =  9.791E-15

      iter #   6 total cpu time :   905.3 secs   av.it.:  11.6
      thresh= 9.895E-09 alpha_mix =  0.700 |ddv_scf|^2 =  6.671E-17

     End of self-consistent calculation

     Convergence has been achieved 


     Representation #   4 modes #   5   6

     Self-consistent Calculation

      iter #   1 total cpu time :   910.4 secs   av.it.:   6.0
      thresh= 1.000E-02 alpha_mix =  0.700 |ddv_scf|^2 =  5.002E-08

      iter #   2 total cpu time :   919.4 secs   av.it.:  11.4
      thresh= 2.236E-05 alpha_mix =  0.700 |ddv_scf|^2 =  3.468E-09

      iter #   3 total cpu time :   926.2 secs   av.it.:  11.2
      thresh= 5.889E-06 alpha_mix =  0.700 |ddv_scf|^2 =  5.014E-11

      iter #   4 total cpu time :   933.4 secs   av.it.:  11.3
      thresh= 7.081E-07 alpha_mix =  0.700 |ddv_scf|^2 =  5.031E-13

      iter #   5 total cpu time :   951.4 secs   av.it.:  11.4
      thresh= 7.093E-08 alpha_mix =  0.700 |ddv_scf|^2 =  9.783E-15

      iter #   6 total cpu time :   957.7 secs   av.it.:  11.5
      thresh= 9.891E-09 alpha_mix =  0.700 |ddv_scf|^2 =  6.669E-17

     End of self-consistent calculation

     Convergence has been achieved 
 
     Number of q in the star =    8
     List of q in the star:
          1  -0.333333333   0.333333333  -0.333333333
          2   0.333333333   0.333333333   0.333333333
          3  -0.333333333  -0.333333333  -0.333333333
          4   0.333333333  -0.333333333   0.333333333
          5   0.333333333  -0.333333333  -0.333333333
          6   0.333333333   0.333333333  -0.333333333
          7  -0.333333333  -0.333333333   0.333333333
          8  -0.333333333   0.333333333   0.333333333

     Diagonalizing the dynamical matrix

     q = (   -0.333333333   0.333333333  -0.333333333 ) 

 **************************************************************************
     freq (    1) =       3.044107 [THz] =     101.540471 [cm-1]
     freq (    2) =       3.044107 [THz] =     101.540471 [cm-1]
     freq (    3) =       8.747649 [THz] =     291.790154 [cm-1]
     freq (    4) =      13.857008 [THz] =     462.220019 [cm-1]
     freq (    5) =      14.763299 [THz] =     492.450658 [cm-1]
     freq (    6) =      14.763299 [THz] =     492.450658 [cm-1]
 **************************************************************************

     Mode symmetry, C_3v (3m)   point group:

     freq (   1-   2) =        101.5  [cm-1]   --> E    L_3           
     freq (   3-   3) =        291.8  [cm-1]   --> A_1  L_1           
     freq (   4-   4) =        462.2  [cm-1]   --> A_1  L_1           
     freq (   5-   6) =        492.5  [cm-1]   --> E    L_3           

     Calculation of q =    0.5000000  -0.5000000   0.5000000
 
     Parallelization info
     --------------------
     sticks:   dense  smooth     PW     G-vecs:    dense   smooth      PW
     Min         167     167     55                 3478     3478     668
     Max         168     168     57                 3481     3481     670
     Sum        1003    1003    337                20875    20875    4015
 
     Using Slab Decomposition
 

     Title: 
     default                                                                    


     bravais-lattice index     =            2
     lattice parameter (alat)  =      10.1899  a.u.
     unit-cell volume          =     264.5151 (a.u.)^3
     number of atoms/cell      =            2
     number of atomic types    =            1
     number of electrons       =         8.00
     number of Kohn-Sham states=            4
     kinetic-energy cutoff     =      70.0000  Ry
     charge density cutoff     =     280.0000  Ry
     Exchange-correlation= PW
                           (   1   4   0   0   0   0   0)

     celldm(1)=  10.189905  celldm(2)=   0.000000  celldm(3)=   0.000000
     celldm(4)=   0.000000  celldm(5)=   0.000000  celldm(6)=   0.000000

     crystal axes: (cart. coord. in units of alat)
               a(1) = (  -0.500000   0.000000   0.500000 )  
               a(2) = (   0.000000   0.500000   0.500000 )  
               a(3) = (  -0.500000   0.500000   0.000000 )  

     reciprocal axes: (cart. coord. in units 2 pi/alat)
               b(1) = ( -1.000000 -1.000000  1.000000 )  
               b(2) = (  1.000000  1.000000  1.000000 )  
               b(3) = ( -1.000000  1.000000 -1.000000 )  


     PseudoPot. # 1 for Si read from file:
     ./pseudos/Si.nc.UPF
     MD5 check sum: 9e2d726316af3d4752eea8ab0afbb951
     Pseudo is Norm-conserving + core correction, Zval =  4.0
     Generated using ONCVPSP code by D. R. Hamann
     Using radial grid of 1510 points,  6 beta functions with: 
                l(1) =   0
                l(2) =   0
                l(3) =   1
                l(4) =   1
                l(5) =   2
                l(6) =   2

     atomic species   valence    mass     pseudopotential
        Si             4.00    28.08550     Si( 1.00)

     48 Sym. Ops., with inversion, found



   Cartesian axes

     site n.     atom                  positions (alat units)
         1           Si  tau(   1) = (   0.0000000   0.0000000   0.0000000  )
         2           Si  tau(   2) = (  -0.2500000   0.2500000   0.2500000  )

     number of k points=   182

     Number of k-points >= 100: set verbosity='high' to print them.

     Dense  grid:    20875 G-vectors     FFT dimensions: (  40,  40,  40)

     Estimated max dynamical RAM per process >       3.10 MB

     Estimated total dynamical RAM >      18.60 MB

     The potential is recalculated from file :
     /fastscratch/tsievers/QE_TMP_DIR/_ph0/si_ph_bench_poolsize_2_n_procs_60_0.save/charge-density

     Starting wfcs are    8 atomic wfcs

     Band Structure Calculation
     Davidson diagonalization with overlap

     ethr =  1.25E-10,  avg # of iterations = 12.9

     total cpu time spent up to now is      162.9 secs

     End of band structure calculation

     Number of k-points >= 100: set verbosity='high' to print the bands.

     highest occupied level (ev):     6.1106

     Writing config to output data dir /fastscratch/tsievers/QE_TMP_DIR/_ph0/si_ph_bench_poolsize_2_n_procs_60_0.save/

     default                                                                    

     bravais-lattice index     =            2
     lattice parameter (alat)  =      10.1899  a.u.
     unit-cell volume          =     264.5151 (a.u.)^3
     number of atoms/cell      =            2
     number of atomic types    =            1
     kinetic-energy cut-off    =      70.0000  Ry
     charge density cut-off    =     280.0000  Ry
     convergence threshold     =      1.0E-15
     beta                      =       0.7000
     number of iterations used =            4
     Exchange-correlation= PW
                           (   1   4   0   0   0   0   0)


     celldm(1)=   10.18990  celldm(2)=    0.00000  celldm(3)=    0.00000
     celldm(4)=    0.00000  celldm(5)=    0.00000  celldm(6)=    0.00000

     crystal axes: (cart. coord. in units of alat)
               a(1) = ( -0.5000  0.0000  0.5000 )  
               a(2) = (  0.0000  0.5000  0.5000 )  
               a(3) = ( -0.5000  0.5000  0.0000 )  

     reciprocal axes: (cart. coord. in units 2 pi/alat)
               b(1) = ( -1.0000 -1.0000  1.0000 )  
               b(2) = (  1.0000  1.0000  1.0000 )  
               b(3) = ( -1.0000  1.0000 -1.0000 )  


     Atoms inside the unit cell: 

     Cartesian axes

     site n.  atom      mass           positions (alat units)
        1     Si  28.0855   tau(    1) = (    0.00000    0.00000    0.00000  )
        2     Si  28.0855   tau(    2) = (   -0.25000    0.25000    0.25000  )

     Computing dynamical matrix for 
                    q = (   0.5000000  -0.5000000   0.5000000 )
 
     13 Sym.Ops. (with q -> -q+G )


     G cutoff =  736.4420  (   3480 G-vectors)     FFT grid: ( 40, 40, 40)
     number of k points=   182

     PseudoPot. # 1 for Si read from file:
     ./pseudos/Si.nc.UPF
     MD5 check sum: 9e2d726316af3d4752eea8ab0afbb951
     Pseudo is Norm-conserving + core correction, Zval =  4.0
     Generated using ONCVPSP code by D. R. Hamann
     Using radial grid of 1510 points,  6 beta functions with: 
                l(1) =   0
                l(2) =   0
                l(3) =   1
                l(4) =   1
                l(5) =   2
                l(6) =   2


     Atomic displacements:
     There are    4 irreducible representations

     Representation     1      1 modes -  To be done

     Representation     2      1 modes -  To be done

     Representation     3      2 modes -  To be done

     Representation     4      2 modes -  To be done



     Alpha used in Ewald sum =   2.8000
     PHONON       :   8m48.15s CPU  16m31.87s WALL



     Representation #   1 mode #   1

     Self-consistent Calculation

      iter #   1 total cpu time :   993.0 secs   av.it.:   5.8
      thresh= 1.000E-02 alpha_mix =  0.700 |ddv_scf|^2 =  2.851E-06

      iter #   2 total cpu time :   994.5 secs   av.it.:   9.9
      thresh= 1.689E-04 alpha_mix =  0.700 |ddv_scf|^2 =  2.630E-06

      iter #   3 total cpu time :   997.0 secs   av.it.:   9.3
      thresh= 1.622E-04 alpha_mix =  0.700 |ddv_scf|^2 =  3.510E-10

      iter #   4 total cpu time :   999.9 secs   av.it.:  10.1
      thresh= 1.873E-06 alpha_mix =  0.700 |ddv_scf|^2 =  6.022E-12

      iter #   5 total cpu time :  1003.9 secs   av.it.:   9.8
      thresh= 2.454E-07 alpha_mix =  0.700 |ddv_scf|^2 =  8.666E-14

      iter #   6 total cpu time :  1007.2 secs   av.it.:   9.8
      thresh= 2.944E-08 alpha_mix =  0.700 |ddv_scf|^2 =  1.139E-15

      iter #   7 total cpu time :  1035.3 secs   av.it.:   9.8
      thresh= 3.375E-09 alpha_mix =  0.700 |ddv_scf|^2 =  3.890E-18

     End of self-consistent calculation

     Convergence has been achieved 


     Representation #   2 mode #   2

     Self-consistent Calculation

      iter #   1 total cpu time :  1036.7 secs   av.it.:   6.7
      thresh= 1.000E-02 alpha_mix =  0.700 |ddv_scf|^2 =  4.356E-05

      iter #   2 total cpu time :  1038.2 secs   av.it.:  10.0
      thresh= 6.600E-04 alpha_mix =  0.700 |ddv_scf|^2 =  1.423E-04

      iter #   3 total cpu time :  1039.6 secs   av.it.:   9.1
      thresh= 1.193E-03 alpha_mix =  0.700 |ddv_scf|^2 =  8.429E-09

      iter #   4 total cpu time :  1041.3 secs   av.it.:   9.8
      thresh= 9.181E-06 alpha_mix =  0.700 |ddv_scf|^2 =  1.767E-10

      iter #   5 total cpu time :  1042.8 secs   av.it.:  10.4
      thresh= 1.329E-06 alpha_mix =  0.700 |ddv_scf|^2 =  8.749E-12

      iter #   6 total cpu time :  1044.6 secs   av.it.:  10.1
      thresh= 2.958E-07 alpha_mix =  0.700 |ddv_scf|^2 =  2.429E-13

      iter #   7 total cpu time :  1045.9 secs   av.it.:   9.4
      thresh= 4.928E-08 alpha_mix =  0.700 |ddv_scf|^2 =  6.391E-17

     End of self-consistent calculation

     Convergence has been achieved 


     Representation #   3 modes #   3   4

     Self-consistent Calculation

      iter #   1 total cpu time :  1050.8 secs   av.it.:   6.1
      thresh= 1.000E-02 alpha_mix =  0.700 |ddv_scf|^2 =  1.007E-07

      iter #   2 total cpu time :  1054.1 secs   av.it.:  11.3
      thresh= 3.173E-05 alpha_mix =  0.700 |ddv_scf|^2 =  8.533E-09

      iter #   3 total cpu time :  1057.3 secs   av.it.:  11.2
      thresh= 9.237E-06 alpha_mix =  0.700 |ddv_scf|^2 =  5.713E-11

      iter #   4 total cpu time :  1061.5 secs   av.it.:  11.2
      thresh= 7.559E-07 alpha_mix =  0.700 |ddv_scf|^2 =  6.387E-14

      iter #   5 total cpu time :  1067.1 secs   av.it.:  11.4
      thresh= 2.527E-08 alpha_mix =  0.700 |ddv_scf|^2 =  8.417E-16

     End of self-consistent calculation

     Convergence has been achieved 


     Representation #   4 modes #   5   6

     Self-consistent Calculation

      iter #   1 total cpu time :  1073.5 secs   av.it.:   5.5
      thresh= 1.000E-02 alpha_mix =  0.700 |ddv_scf|^2 =  1.142E-08

      iter #   2 total cpu time :  1078.1 secs   av.it.:  11.2
      thresh= 1.069E-05 alpha_mix =  0.700 |ddv_scf|^2 =  2.994E-10

      iter #   3 total cpu time :  1082.1 secs   av.it.:  11.2
      thresh= 1.730E-06 alpha_mix =  0.700 |ddv_scf|^2 =  1.841E-11

      iter #   4 total cpu time :  1085.5 secs   av.it.:  11.3
      thresh= 4.290E-07 alpha_mix =  0.700 |ddv_scf|^2 =  7.879E-14

      iter #   5 total cpu time :  1088.8 secs   av.it.:  11.2
      thresh= 2.807E-08 alpha_mix =  0.700 |ddv_scf|^2 =  1.259E-15

      iter #   6 total cpu time :  1091.9 secs   av.it.:  11.3
      thresh= 3.548E-09 alpha_mix =  0.700 |ddv_scf|^2 =  2.678E-18

     End of self-consistent calculation

     Convergence has been achieved 
 
     Number of q in the star =    4
     List of q in the star:
          1   0.500000000  -0.500000000   0.500000000
          2   0.500000000   0.500000000   0.500000000
          3  -0.500000000   0.500000000   0.500000000
          4   0.500000000   0.500000000  -0.500000000

     Diagonalizing the dynamical matrix

     q = (    0.500000000  -0.500000000   0.500000000 ) 

 **************************************************************************
     freq (    1) =       3.158329 [THz] =     105.350524 [cm-1]
     freq (    2) =       3.158329 [THz] =     105.350524 [cm-1]
     freq (    3) =      11.168981 [THz] =     372.557112 [cm-1]
     freq (    4) =      12.390699 [THz] =     413.309221 [cm-1]
     freq (    5) =      14.704262 [THz] =     490.481382 [cm-1]
     freq (    6) =      14.704262 [THz] =     490.481382 [cm-1]
 **************************************************************************
 
     init_run     :      0.11s CPU      1.88s WALL (       3 calls)
     electrons    :    153.16s CPU    157.10s WALL (       3 calls)

     Called by init_run:
     wfcinit      :      0.00s CPU      1.44s WALL (       3 calls)
     potinit      :      0.00s CPU      0.33s WALL (       3 calls)
     hinit0       :      0.04s CPU      0.04s WALL (       3 calls)

     Called by electrons:
     c_bands      :    153.16s CPU    157.10s WALL (       3 calls)
     v_of_rho     :      0.00s CPU      0.00s WALL (       4 calls)

     Called by c_bands:
     init_us_2    :      3.00s CPU      3.13s WALL (   20867 calls)
     init_us_2:cp :      2.94s CPU      3.08s WALL (   20867 calls)
     cegterg      :     22.74s CPU     23.26s WALL (     910 calls)

     Called by *egterg:
     cdiaghg      :      7.68s CPU      7.86s WALL (   12630 calls)
     h_psi        :    258.82s CPU    267.49s WALL (  257014 calls)
     g_psi        :      0.14s CPU      0.14s WALL (   11720 calls)

     Called by h_psi:
     h_psi:calbec :     17.75s CPU     18.38s WALL (  257014 calls)
     vloc_psi     :    224.84s CPU    232.32s WALL (  257014 calls)
     add_vuspsi   :     13.70s CPU     14.30s WALL (  257014 calls)

     General routines
     calbec       :     32.73s CPU     34.13s WALL (  516994 calls)
     fft          :      0.23s CPU      0.26s WALL (    1205 calls)
     ffts         :      0.47s CPU      0.50s WALL (    3150 calls)
     fftw         :    278.06s CPU    286.30s WALL ( 2187630 calls)
     davcio       :      1.46s CPU     84.91s WALL (  103161 calls)
 
     Parallel routines
 
     PHONON       :   9m47.66s CPU  18m14.17s WALL

     INITIALIZATION: 
     phq_setup    :      0.01s CPU      0.66s WALL (       4 calls)
     phq_init     :      1.20s CPU      2.41s WALL (       4 calls)
 
     phq_init     :      1.20s CPU      2.41s WALL (       4 calls)
     set_drhoc    :      0.38s CPU      0.39s WALL (      12 calls)
     init_vloc    :      0.01s CPU      0.01s WALL (       4 calls)
     init_us_1    :      0.02s CPU      0.02s WALL (       4 calls)
     init_us_2    :      3.00s CPU      3.13s WALL (   20867 calls)
 
     DYNAMICAL MATRIX:
     dynmat0      :      0.71s CPU      1.89s WALL (       4 calls)
     phqscf       :    407.85s CPU    827.02s WALL (       4 calls)
     dynmatrix    :      0.00s CPU      2.51s WALL (       4 calls)
 
     phqscf       :    407.85s CPU    827.02s WALL (       4 calls)
     solve_linter :    405.63s CPU    793.48s WALL (      14 calls)
     drhodv       :      1.68s CPU      3.20s WALL (      14 calls)
 
     dynmat0      :      0.71s CPU      1.89s WALL (       4 calls)
     dynmat_us    :      0.45s CPU      0.46s WALL (       4 calls)
     d2ionq       :      0.00s CPU      0.00s WALL (       4 calls)
     dynmatcc     :      0.26s CPU      0.26s WALL (       4 calls)
 
     dynmat_us    :      0.45s CPU      0.46s WALL (       4 calls)
 
     phqscf       :    407.85s CPU    827.02s WALL (       4 calls)
     solve_linter :    405.63s CPU    793.48s WALL (      14 calls)
 
     solve_linter :    405.63s CPU    793.48s WALL (      14 calls)
     dvqpsi_us    :      4.25s CPU      4.49s WALL (    3066 calls)
     sth_kernel   :    359.10s CPU    439.91s WALL (     108 calls)
     apply_dpot_b :     27.48s CPU     28.26s WALL (   18298 calls)
     ortho        :      1.36s CPU      1.40s WALL (   21364 calls)
     cgsolve      :    276.87s CPU    286.41s WALL (   21364 calls)
     incdrhoscf   :     50.37s CPU     51.23s WALL (   21280 calls)
     dv_of_drho   :      0.11s CPU      0.11s WALL (     173 calls)
     mix_pot      :      9.74s CPU    134.71s WALL (     108 calls)
     psymdvscf    :      3.64s CPU      3.67s WALL (     103 calls)
 
     dvqpsi_us    :      4.25s CPU      4.49s WALL (    3066 calls)
     dvqpsi_us_on :      0.79s CPU      0.83s WALL (    3066 calls)
 
     cgsolve      :    276.87s CPU    286.41s WALL (   21364 calls)
     ch_psi       :    271.17s CPU    280.40s WALL (  243474 calls)
 
     ch_psi       :    271.17s CPU    280.40s WALL (  243474 calls)
     h_psi        :    258.82s CPU    267.49s WALL (  257014 calls)
     last         :     23.09s CPU     23.95s WALL (  243474 calls)
 
     h_psi        :    258.82s CPU    267.49s WALL (  257014 calls)
     add_vuspsi   :     13.70s CPU     14.30s WALL (  257014 calls)
 
     incdrhoscf   :     50.37s CPU     51.23s WALL (   21280 calls)
 
 
      General routines
     calbec       :     32.73s CPU     34.13s WALL (  516994 calls)
     fft          :      0.23s CPU      0.26s WALL (    1205 calls)
     ffts         :      0.47s CPU      0.50s WALL (    3150 calls)
     fftw         :    278.06s CPU    286.30s WALL ( 2187630 calls)
     davcio       :      1.46s CPU     84.91s WALL (  103161 calls)
     write_rec    :      0.96s CPU    216.40s WALL (     122 calls)
 
 
     PHONON       :   9m47.66s CPU  18m14.17s WALL

 
   This run was terminated on:  20:12:30  20May2022            

=------------------------------------------------------------------------------=
   JOB DONE.
=------------------------------------------------------------------------------=
real 1220.45
user 15920.59
sys 267.14
