Module for intel-oneAPI 2021.4 loaded.
 
:: initializing oneAPI environment ...
   2811881: BASH_VERSION = 4.4.20(1)-release
:: advisor -- latest
:: ccl -- latest
:: clck -- latest
:: compiler -- latest
:: dal -- latest
:: debugger -- latest
:: dev-utilities -- latest
:: dnnl -- latest
:: dpcpp-ct -- latest
:: dpl -- latest
:: inspector -- latest
:: intelpython -- latest
:: ipp -- latest
:: ippcp -- latest
:: ipp -- latest
:: itac -- latest
:: LPOT -- latest
:: mkl -- latest
:: modelzoo -- latest
:: mpi -- latest
:: pytorch -- latest
:: tbb -- latest
:: tensorflow -- latest
:: vpl -- latest
:: vtune -- latest
:: oneAPI environment initialized ::
 

     Program PWSCF v.7.0 starts on  6Jun2022 at 11:10:11 

     This program is part of the open-source Quantum ESPRESSO suite
     for quantum simulation of materials; please cite
         "P. Giannozzi et al., J. Phys.:Condens. Matter 21 395502 (2009);
         "P. Giannozzi et al., J. Phys.:Condens. Matter 29 465901 (2017);
         "P. Giannozzi et al., J. Chem. Phys. 152 154105 (2020);
          URL http://www.quantum-espresso.org", 
     in publications or presentations arising from this work. More details at
     http://www.quantum-espresso.org/quote

     Parallel version (MPI), running on    54 processors

     MPI processes distributed on     3 nodes
     K-points division:     npool     =       3
     R & G space division:  proc/nbgrp/npool/nimage =      18
     59341 MiB available memory on the printing compute node when the environment starts
 
     Reading input from in_files/si_ph_bench_poolsize_18_n_procs_54_3.scf

     Current dimensions of program PWSCF are:
     Max number of different atomic species (ntypx) = 10
     Max number of k-points (npk) =  40000
     Max angular momentum in pseudopotentials (lmaxx) =  4

     Subspace diagonalization in iterative solution of the eigenvalue problem:
     a serial algorithm will be used

 
     Parallelization info
     --------------------
     sticks:   dense  smooth     PW     G-vecs:    dense   smooth      PW
     Min          55      55     16                 1158     1158     191
     Max          56      56     17                 1161     1161     195
     Sum        1003    1003    301                20875    20875    3479
 
     Using Slab Decomposition
 


     bravais-lattice index     =            2
     lattice parameter (alat)  =      10.1899  a.u.
     unit-cell volume          =     264.5151 (a.u.)^3
     number of atoms/cell      =            2
     number of atomic types    =            1
     number of electrons       =         8.00
     number of Kohn-Sham states=            4
     kinetic-energy cutoff     =      70.0000  Ry
     charge density cutoff     =     280.0000  Ry
     scf convergence threshold =      1.0E-10
     mixing beta               =       0.7000
     number of iterations used =            8  plain     mixing
     Exchange-correlation= SLA  PW   NOGX NOGC
                           (   1   4   0   0   0   0   0)

     celldm(1)=  10.189905  celldm(2)=   0.000000  celldm(3)=   0.000000
     celldm(4)=   0.000000  celldm(5)=   0.000000  celldm(6)=   0.000000

     crystal axes: (cart. coord. in units of alat)
               a(1) = (  -0.500000   0.000000   0.500000 )  
               a(2) = (   0.000000   0.500000   0.500000 )  
               a(3) = (  -0.500000   0.500000   0.000000 )  

     reciprocal axes: (cart. coord. in units 2 pi/alat)
               b(1) = ( -1.000000 -1.000000  1.000000 )  
               b(2) = (  1.000000  1.000000  1.000000 )  
               b(3) = ( -1.000000  1.000000 -1.000000 )  


     PseudoPot. # 1 for Si read from file:
     ./pseudos/Si.nc.UPF
     MD5 check sum: 9e2d726316af3d4752eea8ab0afbb951
     Pseudo is Norm-conserving + core correction, Zval =  4.0
     Generated using ONCVPSP code by D. R. Hamann
     Using radial grid of 1510 points,  6 beta functions with: 
                l(1) =   0
                l(2) =   0
                l(3) =   1
                l(4) =   1
                l(5) =   2
                l(6) =   2

     atomic species   valence    mass     pseudopotential
        Si             4.00    28.08550     Si( 1.00)

     48 Sym. Ops., with inversion, found (24 have fractional translation)



   Cartesian axes

     site n.     atom                  positions (alat units)
         1           Si  tau(   1) = (   0.0000000   0.0000000   0.0000000  )
         2           Si  tau(   2) = (  -0.2500000   0.2500000   0.2500000  )

     number of k points=    28
                       cart. coord. in units 2pi/alat
        k(    1) = (  -0.0833333   0.0833333   0.0833333), wk =   0.0185185
        k(    2) = (  -0.2500000   0.2500000  -0.0833333), wk =   0.0555556
        k(    3) = (  -0.4166667   0.4166667  -0.2500000), wk =   0.0555556
        k(    4) = (   0.4166667  -0.4166667   0.5833333), wk =   0.0555556
        k(    5) = (   0.2500000  -0.2500000   0.4166667), wk =   0.0555556
        k(    6) = (   0.0833333  -0.0833333   0.2500000), wk =   0.0555556
        k(    7) = (  -0.0833333   0.4166667   0.0833333), wk =   0.0555556
        k(    8) = (  -0.2500000   0.5833333  -0.0833333), wk =   0.1111111
        k(    9) = (   0.5833333  -0.2500000   0.7500000), wk =   0.1111111
        k(   10) = (   0.4166667  -0.0833333   0.5833333), wk =   0.1111111
        k(   11) = (   0.2500000   0.0833333   0.4166667), wk =   0.1111111
        k(   12) = (  -0.0833333   0.7500000   0.0833333), wk =   0.0555556
        k(   13) = (   0.7500000  -0.0833333   0.9166667), wk =   0.1111111
        k(   14) = (   0.5833333   0.0833333   0.7500000), wk =   0.1111111
        k(   15) = (   0.4166667   0.2500000   0.5833333), wk =   0.1111111
        k(   16) = (  -0.0833333  -0.9166667   0.0833333), wk =   0.0555556
        k(   17) = (  -0.2500000  -0.7500000  -0.0833333), wk =   0.1111111
        k(   18) = (  -0.0833333  -0.5833333   0.0833333), wk =   0.0555556
        k(   19) = (  -0.2500000   0.2500000   0.2500000), wk =   0.0185185
        k(   20) = (  -0.4166667   0.4166667   0.0833333), wk =   0.0555556
        k(   21) = (   0.4166667  -0.4166667   0.9166667), wk =   0.0555556
        k(   22) = (   0.2500000  -0.2500000   0.7500000), wk =   0.0555556
        k(   23) = (  -0.2500000   0.5833333   0.2500000), wk =   0.0555556
        k(   24) = (   0.5833333  -0.2500000   1.0833333), wk =   0.1111111
        k(   25) = (   0.4166667  -0.0833333   0.9166667), wk =   0.1111111
        k(   26) = (  -0.2500000  -1.0833333   0.2500000), wk =   0.0555556
        k(   27) = (  -0.4166667   0.4166667   0.4166667), wk =   0.0185185
        k(   28) = (   0.4166667  -0.4166667   1.2500000), wk =   0.0555556

     Dense  grid:    20875 G-vectors     FFT dimensions: (  40,  40,  40)

     Estimated max dynamical RAM per process >       2.37 MB

     Estimated total dynamical RAM >     117.95 MB

     Initial potential from superposition of free atoms

     starting charge       7.9989, renormalised to       8.0000
     Starting wfcs are    8 randomized atomic wfcs

     total cpu time spent up to now is       15.2 secs

     Self-consistent Calculation

     iteration #  1     ecut=    70.00 Ry     beta= 0.70
     Davidson diagonalization with overlap
     ethr =  1.00E-02,  avg # of iterations =  2.0

     Threshold (ethr) on eigenvalues was too large:
     Diagonalizing with lowered threshold

     Davidson diagonalization with overlap
     ethr =  6.13E-04,  avg # of iterations =  2.0

     total cpu time spent up to now is       15.3 secs

     total energy              =     -17.04763209 Ry
     estimated scf accuracy    <       0.05799243 Ry

     iteration #  2     ecut=    70.00 Ry     beta= 0.70
     Davidson diagonalization with overlap
     ethr =  7.25E-04,  avg # of iterations =  1.0

     total cpu time spent up to now is       15.3 secs

     total energy              =     -17.04994905 Ry
     estimated scf accuracy    <       0.00249511 Ry

     iteration #  3     ecut=    70.00 Ry     beta= 0.70
     Davidson diagonalization with overlap
     ethr =  3.12E-05,  avg # of iterations =  2.9

     total cpu time spent up to now is       15.3 secs

     total energy              =     -17.05082110 Ry
     estimated scf accuracy    <       0.00009522 Ry

     iteration #  4     ecut=    70.00 Ry     beta= 0.70
     Davidson diagonalization with overlap
     ethr =  1.19E-06,  avg # of iterations =  4.6

     total cpu time spent up to now is       15.4 secs

     total energy              =     -17.05089842 Ry
     estimated scf accuracy    <       0.00000252 Ry

     iteration #  5     ecut=    70.00 Ry     beta= 0.70
     Davidson diagonalization with overlap
     ethr =  3.15E-08,  avg # of iterations =  4.6

     total cpu time spent up to now is       15.4 secs

     total energy              =     -17.05090100 Ry
     estimated scf accuracy    <       0.00000012 Ry

     iteration #  6     ecut=    70.00 Ry     beta= 0.70
     Davidson diagonalization with overlap
     ethr =  1.52E-09,  avg # of iterations =  3.2

     total cpu time spent up to now is       15.5 secs

     total energy              =     -17.05090106 Ry
     estimated scf accuracy    <       0.00000002 Ry

     iteration #  7     ecut=    70.00 Ry     beta= 0.70
     Davidson diagonalization with overlap
     ethr =  2.03E-10,  avg # of iterations =  3.4

     total cpu time spent up to now is       15.5 secs

     total energy              =     -17.05090107 Ry
     estimated scf accuracy    <          2.8E-10 Ry

     iteration #  8     ecut=    70.00 Ry     beta= 0.70
     Davidson diagonalization with overlap
     ethr =  3.48E-12,  avg # of iterations =  5.2

     total cpu time spent up to now is       15.6 secs

     total energy              =     -17.05090107 Ry
     estimated scf accuracy    <          2.0E-10 Ry

     iteration #  9     ecut=    70.00 Ry     beta= 0.70
     Davidson diagonalization with overlap
     ethr =  2.48E-12,  avg # of iterations =  2.1

     total cpu time spent up to now is       15.6 secs

     total energy              =     -17.05090107 Ry
     estimated scf accuracy    <          2.1E-10 Ry

     iteration # 10     ecut=    70.00 Ry     beta= 0.70
     Davidson diagonalization with overlap
     ethr =  2.48E-12,  avg # of iterations =  1.0

     total cpu time spent up to now is       15.7 secs

     End of self-consistent calculation

          k =-0.0833 0.0833 0.0833 (  2667 PWs)   bands (ev):

    -5.7561   5.3866   6.1106   6.1106

          k =-0.2500 0.2500-0.0833 (  2621 PWs)   bands (ev):

    -5.2692   3.2786   4.8359   5.9020

          k =-0.4167 0.4167-0.2500 (  2618 PWs)   bands (ev):

    -4.1491   0.4558   4.3704   5.2525

          k = 0.4167-0.4167 0.5833 (  2604 PWs)   bands (ev):

    -3.4239  -0.7236   4.4440   4.8611

          k = 0.2500-0.2500 0.4167 (  2618 PWs)   bands (ev):

    -4.5726   1.3222   4.9163   4.9542

          k = 0.0833-0.0833 0.2500 (  2643 PWs)   bands (ev):

    -5.5104   4.3092   5.4446   5.6431

          k =-0.0833 0.4167 0.0833 (  2627 PWs)   bands (ev):

    -5.0231   3.1094   4.6844   4.6977

          k =-0.2500 0.5833-0.0833 (  2613 PWs)   bands (ev):

    -4.0918   1.2428   3.3199   4.3008

          k = 0.5833-0.2500 0.7500 (  2616 PWs)   bands (ev):

    -2.9383  -0.5645   2.7090   4.0651

          k = 0.4167-0.0833 0.5833 (  2617 PWs)   bands (ev):

    -3.6856   0.5301   2.6549   4.5685

          k = 0.2500 0.0833 0.4167 (  2624 PWs)   bands (ev):

    -4.7922   2.2460   4.0374   5.2604

          k =-0.0833 0.7500 0.0833 (  2617 PWs)   bands (ev):

    -3.3665   0.4197   3.2861   3.6484

          k = 0.7500-0.0833 0.9167 (  2608 PWs)   bands (ev):

    -2.1400  -0.9430   2.4039   3.2176

          k = 0.5833 0.0833 0.7500 (  2608 PWs)   bands (ev):

    -2.5100  -0.6178   1.9048   3.7798

          k = 0.4167 0.2500 0.5833 (  2622 PWs)   bands (ev):

    -3.5664  -0.1968   3.6416   4.6730

          k =-0.0833-0.9167 0.0833 (  2604 PWs)   bands (ev):

    -2.2385  -0.9535   3.0091   3.4290

          k =-0.2500-0.7500-0.0833 (  2615 PWs)   bands (ev):

    -3.1915   0.1893   2.7413   3.5674

          k =-0.0833-0.5833 0.0833 (  2620 PWs)   bands (ev):

    -4.3033   1.8031   3.8479   4.0788

          k =-0.2500 0.2500 0.2500 (  2632 PWs)   bands (ev):

    -5.0343   2.2730   5.4857   5.4857

          k =-0.4167 0.4167 0.0833 (  2620 PWs)   bands (ev):

    -4.3392   1.3430   3.2813   5.3165

          k = 0.4167-0.4167 0.9167 (  2613 PWs)   bands (ev):

    -3.1275  -0.1140   2.1361   4.5076

          k = 0.2500-0.2500 0.7500 (  2618 PWs)   bands (ev):

    -3.0762  -0.1941   2.6355   4.0115

          k =-0.2500 0.5833 0.2500 (  2613 PWs)   bands (ev):

    -3.9042   0.5132   3.7736   4.3933

          k = 0.5833-0.2500 1.0833 (  2619 PWs)   bands (ev):

    -2.8765  -0.2149   2.2381   3.5571

          k = 0.4167-0.0833 0.9167 (  2613 PWs)   bands (ev):

    -2.0245  -0.9506   2.0592   2.8637

          k =-0.2500-1.0833 0.2500 (  2605 PWs)   bands (ev):

    -2.2385  -0.8649   1.9289   3.8127

          k =-0.4167 0.4167 0.4167 (  2602 PWs)   bands (ev):

    -3.8074  -0.3119   5.0941   5.0941

          k = 0.4167-0.4167 1.2500 (  2605 PWs)   bands (ev):

    -3.1840  -0.6106   3.2018   4.6388

     highest occupied level (ev):     6.1106

!    total energy              =     -17.05090107 Ry
     estimated scf accuracy    <          1.1E-11 Ry

     The total energy is the sum of the following terms:
     one-electron contribution =       5.01080522 Ry
     hartree contribution      =       1.07710609 Ry
     xc contribution           =      -6.22231110 Ry
     ewald contribution        =     -16.91650128 Ry

     convergence has been achieved in  10 iterations

     Forces acting on atoms (cartesian axes, Ry/au):

     atom    1 type  1   force =     0.00000000    0.00000000    0.00000000
     atom    2 type  1   force =     0.00000000    0.00000000    0.00000000

     Total force =     0.000000     Total SCF correction =     0.000000

     Writing all to output data dir /fastscratch/tsievers/QE_TMP_DIR/si_ph_bench_poolsize_18_n_procs_54_3.save/
 
     init_run     :      0.03s CPU      0.07s WALL (       1 calls)
     electrons    :      0.44s CPU      0.51s WALL (       1 calls)
     forces       :      0.01s CPU      0.01s WALL (       1 calls)

     Called by init_run:
     wfcinit      :      0.01s CPU      0.02s WALL (       1 calls)
     potinit      :      0.00s CPU      0.01s WALL (       1 calls)
     hinit0       :      0.01s CPU      0.04s WALL (       1 calls)

     Called by electrons:
     c_bands      :      0.38s CPU      0.40s WALL (      11 calls)
     sum_band     :      0.05s CPU      0.05s WALL (      11 calls)
     v_of_rho     :      0.01s CPU      0.01s WALL (      11 calls)
     mix_rho      :      0.00s CPU      0.00s WALL (      11 calls)

     Called by c_bands:
     init_us_2    :      0.01s CPU      0.01s WALL (     240 calls)
     init_us_2:cp :      0.01s CPU      0.01s WALL (     240 calls)
     cegterg      :      0.26s CPU      0.28s WALL (     110 calls)

     Called by *egterg:
     cdiaghg      :      0.02s CPU      0.02s WALL (     439 calls)
     h_psi        :      0.23s CPU      0.25s WALL (     459 calls)
     g_psi        :      0.00s CPU      0.00s WALL (     339 calls)

     Called by h_psi:
     h_psi:calbec :      0.02s CPU      0.02s WALL (     459 calls)
     vloc_psi     :      0.20s CPU      0.21s WALL (     459 calls)
     add_vuspsi   :      0.01s CPU      0.01s WALL (     459 calls)

     General routines
     calbec       :      0.02s CPU      0.02s WALL (     499 calls)
     fft          :      0.01s CPU      0.04s WALL (      37 calls)
     ffts         :      0.00s CPU      0.00s WALL (      11 calls)
     fftw         :      0.21s CPU      0.23s WALL (    3456 calls)
 
     Parallel routines
 
     PWSCF        :     15.98s CPU     16.19s WALL

 
   This run was terminated on:  11:10:27   6Jun2022            

=------------------------------------------------------------------------------=
   JOB DONE.
=------------------------------------------------------------------------------=

     Program PHONON v.7.0 starts on  6Jun2022 at 11:10:31 

     This program is part of the open-source Quantum ESPRESSO suite
     for quantum simulation of materials; please cite
         "P. Giannozzi et al., J. Phys.:Condens. Matter 21 395502 (2009);
         "P. Giannozzi et al., J. Phys.:Condens. Matter 29 465901 (2017);
         "P. Giannozzi et al., J. Chem. Phys. 152 154105 (2020);
          URL http://www.quantum-espresso.org", 
     in publications or presentations arising from this work. More details at
     http://www.quantum-espresso.org/quote

     Parallel version (MPI), running on    54 processors

     MPI processes distributed on     3 nodes
     K-points division:     npool     =       3
     R & G space division:  proc/nbgrp/npool/nimage =      18
     59341 MiB available memory on the printing compute node when the environment starts
 
     Reading input from in_files/si_ph_bench_poolsize_18_n_procs_54_3.ph
      Title line not specified: using 'default'.

     Reading xml data from directory:

     /fastscratch/tsievers/QE_TMP_DIR/si_ph_bench_poolsize_18_n_procs_54_3.save/

     IMPORTANT: XC functional enforced from input :
     Exchange-correlation= PW
                           (   1   4   0   0   0   0   0)
     Any further DFT definition will be discarded
     Please, verify this is what you really want

 
     Parallelization info
     --------------------
     sticks:   dense  smooth     PW     G-vecs:    dense   smooth      PW
     Min          55      55     16                 1158     1158     191
     Max          56      56     17                 1161     1161     195
     Sum        1003    1003    301                20875    20875    3479
 
     Using Slab Decomposition
 
     Reading collected, re-writing distributed wavefunctions


     Dynamical matrices for ( 6, 6, 6)  uniform grid of q-points
     (  16 q-points):
       N         xq(1)         xq(2)         xq(3) 
       1   0.000000000   0.000000000   0.000000000
       2  -0.166666667   0.166666667  -0.166666667
       3  -0.333333333   0.333333333  -0.333333333
       4   0.500000000  -0.500000000   0.500000000
       5   0.000000000   0.333333333   0.000000000
       6  -0.166666667   0.500000000  -0.166666667
       7   0.666666667  -0.333333333   0.666666667
       8   0.500000000  -0.166666667   0.500000000
       9   0.333333333   0.000000000   0.333333333
      10   0.000000000   0.666666667   0.000000000
      11   0.833333333  -0.166666667   0.833333333
      12   0.666666667  -0.000000000   0.666666667
      13   0.000000000  -1.000000000   0.000000000
      14   0.666666667  -0.333333333   1.000000000
      15   0.500000000  -0.166666667   0.833333333
      16  -0.333333333  -1.000000000   0.000000000

     Calculation of q =    0.0000000   0.0000000   0.0000000

     default                                                                    

     bravais-lattice index     =            2
     lattice parameter (alat)  =      10.1899  a.u.
     unit-cell volume          =     264.5151 (a.u.)^3
     number of atoms/cell      =            2
     number of atomic types    =            1
     kinetic-energy cut-off    =      70.0000  Ry
     charge density cut-off    =     280.0000  Ry
     convergence threshold     =      1.0E-15
     beta                      =       0.7000
     number of iterations used =            4
     Exchange-correlation= PW
                           (   1   4   0   0   0   0   0)


     celldm(1)=   10.18990  celldm(2)=    0.00000  celldm(3)=    0.00000
     celldm(4)=    0.00000  celldm(5)=    0.00000  celldm(6)=    0.00000

     crystal axes: (cart. coord. in units of alat)
               a(1) = ( -0.5000  0.0000  0.5000 )  
               a(2) = (  0.0000  0.5000  0.5000 )  
               a(3) = ( -0.5000  0.5000  0.0000 )  

     reciprocal axes: (cart. coord. in units 2 pi/alat)
               b(1) = ( -1.0000 -1.0000  1.0000 )  
               b(2) = (  1.0000  1.0000  1.0000 )  
               b(3) = ( -1.0000  1.0000 -1.0000 )  


     Atoms inside the unit cell: 

     Cartesian axes

     site n.  atom      mass           positions (alat units)
        1     Si  28.0855   tau(    1) = (    0.00000    0.00000    0.00000  )
        2     Si  28.0855   tau(    2) = (   -0.25000    0.25000    0.25000  )

     Computing dynamical matrix for 
                    q = (   0.0000000   0.0000000   0.0000000 )
 
     49 Sym.Ops. (with q -> -q+G )


     G cutoff =  736.4420  (   1161 G-vectors)     FFT grid: ( 40, 40, 40)
     number of k points=    28

     PseudoPot. # 1 for Si read from file:
     ./pseudos/Si.nc.UPF
     MD5 check sum: 9e2d726316af3d4752eea8ab0afbb951
     Pseudo is Norm-conserving + core correction, Zval =  4.0
     Generated using ONCVPSP code by D. R. Hamann
     Using radial grid of 1510 points,  6 beta functions with: 
                l(1) =   0
                l(2) =   0
                l(3) =   1
                l(4) =   1
                l(5) =   2
                l(6) =   2

     Mode symmetry, O_h (m-3m)  point group:


     Electric field:
     Dielectric constant
     Born effective charges in two ways 


     Atomic displacements:
     There are    2 irreducible representations

     Representation     1      3 modes -  To be done

     Representation     2      3 modes -  To be done



     Alpha used in Ewald sum =   2.8000
     PHONON       :      0.34s CPU      0.49s WALL


     Electric Fields Calculation

      iter #   1 total cpu time :     1.4 secs   av.it.:   6.5
      thresh= 1.000E-02 alpha_mix =  0.700 |ddv_scf|^2 =  6.313E-08

      iter #   2 total cpu time :     3.3 secs   av.it.:  12.0
      thresh= 2.513E-05 alpha_mix =  0.700 |ddv_scf|^2 =  2.706E-09

      iter #   3 total cpu time :    25.8 secs   av.it.:  11.8
      thresh= 5.201E-06 alpha_mix =  0.700 |ddv_scf|^2 =  3.050E-11

      iter #   4 total cpu time :    26.5 secs   av.it.:  12.2
      thresh= 5.522E-07 alpha_mix =  0.700 |ddv_scf|^2 =  1.809E-13

      iter #   5 total cpu time :    27.6 secs   av.it.:  11.1
      thresh= 4.253E-08 alpha_mix =  0.700 |ddv_scf|^2 =  6.644E-17

     End of electric fields calculation

          Dielectric constant in cartesian axis 

          (      13.311687822      -0.000000000      -0.000000000 )
          (      -0.000000000      13.311687822       0.000000000 )
          (      -0.000000000       0.000000000      13.311687822 )

          Effective charges (d Force / dE) in cartesian axis without acoustic sum rule applied (asr)

           atom      1   Si Mean Z*:       -0.00670
      Ex  (       -0.00670       -0.00000       -0.00000 )
      Ey  (       -0.00000       -0.00670       -0.00000 )
      Ez  (       -0.00000       -0.00000       -0.00670 )
           atom      2   Si Mean Z*:       -0.00670
      Ex  (       -0.00670       -0.00000        0.00000 )
      Ey  (       -0.00000       -0.00670        0.00000 )
      Ez  (        0.00000        0.00000       -0.00670 )

          Effective charges Sum: Mean:       -0.01341
             -0.01341       -0.00000       -0.00000
             -0.00000       -0.01341       -0.00000
             -0.00000       -0.00000       -0.01341

          Effective charges (d Force / dE) in cartesian axis with asr applied: 
           atom      1   Si Mean Z*:        0.00000
      E*x (        0.00000        0.00000       -0.00000 )
      E*y (        0.00000        0.00000       -0.00000 )
      E*z (       -0.00000       -0.00000        0.00000 )
           atom      2   Si Mean Z*:       -0.00000
      E*x (       -0.00000       -0.00000        0.00000 )
      E*y (       -0.00000       -0.00000        0.00000 )
      E*z (        0.00000        0.00000       -0.00000 )


     Representation #   1 modes #   1   2   3

     Self-consistent Calculation

      iter #   1 total cpu time :    28.8 secs   av.it.:   5.8
      thresh= 1.000E-02 alpha_mix =  0.700 |ddv_scf|^2 =  9.101E-09

      iter #   2 total cpu time :    29.7 secs   av.it.:  11.9
      thresh= 9.540E-06 alpha_mix =  0.700 |ddv_scf|^2 =  2.045E-10

      iter #   3 total cpu time :    30.8 secs   av.it.:  12.0
      thresh= 1.430E-06 alpha_mix =  0.700 |ddv_scf|^2 =  7.634E-12

      iter #   4 total cpu time :    31.7 secs   av.it.:  11.7
      thresh= 2.763E-07 alpha_mix =  0.700 |ddv_scf|^2 =  2.472E-14

      iter #   5 total cpu time :    32.6 secs   av.it.:  12.1
      thresh= 1.572E-08 alpha_mix =  0.700 |ddv_scf|^2 =  1.148E-16

     End of self-consistent calculation

     Convergence has been achieved 


     Representation #   2 modes #   4   5   6

     Self-consistent Calculation

      iter #   1 total cpu time :    35.7 secs   av.it.:   6.0
      thresh= 1.000E-02 alpha_mix =  0.700 |ddv_scf|^2 =  6.568E-09

      iter #   2 total cpu time :    36.8 secs   av.it.:  12.1
      thresh= 8.105E-06 alpha_mix =  0.700 |ddv_scf|^2 =  2.362E-10

      iter #   3 total cpu time :    37.6 secs   av.it.:  12.0
      thresh= 1.537E-06 alpha_mix =  0.700 |ddv_scf|^2 =  1.075E-11

      iter #   4 total cpu time :    40.7 secs   av.it.:  12.0
      thresh= 3.279E-07 alpha_mix =  0.700 |ddv_scf|^2 =  1.925E-14

      iter #   5 total cpu time :    41.3 secs   av.it.:  12.2
      thresh= 1.387E-08 alpha_mix =  0.700 |ddv_scf|^2 =  5.209E-17

     End of self-consistent calculation

     Convergence has been achieved 
 
     Number of q in the star =    1
     List of q in the star:
          1   0.000000000   0.000000000   0.000000000

          Dielectric constant in cartesian axis 

          (      13.311687822      -0.000000000      -0.000000000 )
          (      -0.000000000      13.311687822       0.000000000 )
          (      -0.000000000       0.000000000      13.311687822 )

          Effective charges (d Force / dE) in cartesian axis without acoustic sum rule applied (asr)

           atom      1   Si Mean Z*:       -0.00670
      Ex  (       -0.00670       -0.00000       -0.00000 )
      Ey  (       -0.00000       -0.00670       -0.00000 )
      Ez  (       -0.00000       -0.00000       -0.00670 )
           atom      2   Si Mean Z*:       -0.00670
      Ex  (       -0.00670       -0.00000        0.00000 )
      Ey  (       -0.00000       -0.00670        0.00000 )
      Ez  (        0.00000        0.00000       -0.00670 )

          Effective charges Sum: Mean:       -0.01341
             -0.01341       -0.00000       -0.00000
             -0.00000       -0.01341       -0.00000
             -0.00000       -0.00000       -0.01341

          Effective charges (d Force / dE) in cartesian axis with asr applied: 
           atom      1   Si Mean Z*:        0.00000
      E*x (        0.00000        0.00000       -0.00000 )
      E*y (        0.00000        0.00000       -0.00000 )
      E*z (       -0.00000       -0.00000        0.00000 )
           atom      2   Si Mean Z*:       -0.00000
      E*x (       -0.00000       -0.00000        0.00000 )
      E*y (       -0.00000       -0.00000        0.00000 )
      E*z (        0.00000        0.00000       -0.00000 )

          Effective charges (d P / du) in cartesian axis 

           atom      1   Si 
      Px  (       -0.00677       -0.00000        0.00000 )
      Py  (       -0.00000       -0.00677        0.00000 )
      Pz  (       -0.00000        0.00000       -0.00677 )
           atom      2   Si 
      Px  (       -0.00677       -0.00000        0.00000 )
      Py  (       -0.00000       -0.00677       -0.00000 )
      Pz  (        0.00000       -0.00000       -0.00677 )

     Diagonalizing the dynamical matrix

     q = (    0.000000000   0.000000000   0.000000000 ) 

 **************************************************************************
     freq (    1) =      -0.106712 [THz] =      -3.559523 [cm-1]
     freq (    2) =      -0.106712 [THz] =      -3.559523 [cm-1]
     freq (    3) =      -0.106712 [THz] =      -3.559523 [cm-1]
     freq (    4) =      15.412139 [THz] =     514.093604 [cm-1]
     freq (    5) =      15.412139 [THz] =     514.093604 [cm-1]
     freq (    6) =      15.412139 [THz] =     514.093604 [cm-1]
 **************************************************************************

     Mode symmetry, O_h (m-3m)  point group:

     freq (   1-   3) =         -3.6  [cm-1]   --> T_1u G_15  G_4- I  
     freq (   4-   6) =        514.1  [cm-1]   --> T_2g G_25' G_5+ R  

     Calculation of q =   -0.1666667   0.1666667  -0.1666667

     Subspace diagonalization in iterative solution of the eigenvalue problem:
     a serial algorithm will be used

 
     Parallelization info
     --------------------
     sticks:   dense  smooth     PW     G-vecs:    dense   smooth      PW
     Min          55      55     17                 1158     1158     204
     Max          56      56     18                 1161     1161     207
     Sum        1003    1003    313                20875    20875    3695
 
     Using Slab Decomposition
 

     Title: 
     default                                                                    


     bravais-lattice index     =            2
     lattice parameter (alat)  =      10.1899  a.u.
     unit-cell volume          =     264.5151 (a.u.)^3
     number of atoms/cell      =            2
     number of atomic types    =            1
     number of electrons       =         8.00
     number of Kohn-Sham states=            4
     kinetic-energy cutoff     =      70.0000  Ry
     charge density cutoff     =     280.0000  Ry
     Exchange-correlation= PW
                           (   1   4   0   0   0   0   0)

     celldm(1)=  10.189905  celldm(2)=   0.000000  celldm(3)=   0.000000
     celldm(4)=   0.000000  celldm(5)=   0.000000  celldm(6)=   0.000000

     crystal axes: (cart. coord. in units of alat)
               a(1) = (  -0.500000   0.000000   0.500000 )  
               a(2) = (   0.000000   0.500000   0.500000 )  
               a(3) = (  -0.500000   0.500000   0.000000 )  

     reciprocal axes: (cart. coord. in units 2 pi/alat)
               b(1) = ( -1.000000 -1.000000  1.000000 )  
               b(2) = (  1.000000  1.000000  1.000000 )  
               b(3) = ( -1.000000  1.000000 -1.000000 )  


     PseudoPot. # 1 for Si read from file:
     ./pseudos/Si.nc.UPF
     MD5 check sum: 9e2d726316af3d4752eea8ab0afbb951
     Pseudo is Norm-conserving + core correction, Zval =  4.0
     Generated using ONCVPSP code by D. R. Hamann
     Using radial grid of 1510 points,  6 beta functions with: 
                l(1) =   0
                l(2) =   0
                l(3) =   1
                l(4) =   1
                l(5) =   2
                l(6) =   2

     atomic species   valence    mass     pseudopotential
        Si             4.00    28.08550     Si( 1.00)

     48 Sym. Ops., with inversion, found



   Cartesian axes

     site n.     atom                  positions (alat units)
         1           Si  tau(   1) = (   0.0000000   0.0000000   0.0000000  )
         2           Si  tau(   2) = (  -0.2500000   0.2500000   0.2500000  )

     number of k points=   364

     Number of k-points >= 100: set verbosity='high' to print them.

     Dense  grid:    20875 G-vectors     FFT dimensions: (  40,  40,  40)

     Estimated max dynamical RAM per process >       2.01 MB

     Estimated total dynamical RAM >     108.40 MB

     The potential is recalculated from file :
     /fastscratch/tsievers/QE_TMP_DIR/_ph0/si_ph_bench_poolsize_18_n_procs_54_3.save/charge-density

     Starting wfcs are    8 atomic wfcs

     Band Structure Calculation
     Davidson diagonalization with overlap

     ethr =  1.25E-10,  avg # of iterations = 12.9

     total cpu time spent up to now is        1.8 secs

     End of band structure calculation

     Number of k-points >= 100: set verbosity='high' to print the bands.

     highest occupied level (ev):     6.1106

     Writing config to output data dir /fastscratch/tsievers/QE_TMP_DIR/_ph0/si_ph_bench_poolsize_18_n_procs_54_3.save/

     default                                                                    

     bravais-lattice index     =            2
     lattice parameter (alat)  =      10.1899  a.u.
     unit-cell volume          =     264.5151 (a.u.)^3
     number of atoms/cell      =            2
     number of atomic types    =            1
     kinetic-energy cut-off    =      70.0000  Ry
     charge density cut-off    =     280.0000  Ry
     convergence threshold     =      1.0E-15
     beta                      =       0.7000
     number of iterations used =            4
     Exchange-correlation= PW
                           (   1   4   0   0   0   0   0)


     celldm(1)=   10.18990  celldm(2)=    0.00000  celldm(3)=    0.00000
     celldm(4)=    0.00000  celldm(5)=    0.00000  celldm(6)=    0.00000

     crystal axes: (cart. coord. in units of alat)
               a(1) = ( -0.5000  0.0000  0.5000 )  
               a(2) = (  0.0000  0.5000  0.5000 )  
               a(3) = ( -0.5000  0.5000  0.0000 )  

     reciprocal axes: (cart. coord. in units 2 pi/alat)
               b(1) = ( -1.0000 -1.0000  1.0000 )  
               b(2) = (  1.0000  1.0000  1.0000 )  
               b(3) = ( -1.0000  1.0000 -1.0000 )  


     Atoms inside the unit cell: 

     Cartesian axes

     site n.  atom      mass           positions (alat units)
        1     Si  28.0855   tau(    1) = (    0.00000    0.00000    0.00000  )
        2     Si  28.0855   tau(    2) = (   -0.25000    0.25000    0.25000  )

     Computing dynamical matrix for 
                    q = (  -0.1666667   0.1666667  -0.1666667 )
 
      6 Sym.Ops. (no q -> -q+G )


     G cutoff =  736.4420  (   1161 G-vectors)     FFT grid: ( 40, 40, 40)
     number of k points=   364

     PseudoPot. # 1 for Si read from file:
     ./pseudos/Si.nc.UPF
     MD5 check sum: 9e2d726316af3d4752eea8ab0afbb951
     Pseudo is Norm-conserving + core correction, Zval =  4.0
     Generated using ONCVPSP code by D. R. Hamann
     Using radial grid of 1510 points,  6 beta functions with: 
                l(1) =   0
                l(2) =   0
                l(3) =   1
                l(4) =   1
                l(5) =   2
                l(6) =   2

     Mode symmetry, C_3v (3m)   point group:


     Atomic displacements:
     There are    4 irreducible representations

     Representation     1      1 modes -  To be done

     Representation     2      1 modes -  To be done

     Representation     3      2 modes -  To be done

     Representation     4      2 modes -  To be done



     Alpha used in Ewald sum =   2.8000
     PHONON       :     23.14s CPU     45.17s WALL



     Representation #   1 mode #   1

     Self-consistent Calculation

      iter #   1 total cpu time :    45.7 secs   av.it.:   6.6
      thresh= 1.000E-02 alpha_mix =  0.700 |ddv_scf|^2 =  8.515E-04

      iter #   2 total cpu time :    46.5 secs   av.it.:   9.2
      thresh= 2.918E-03 alpha_mix =  0.700 |ddv_scf|^2 =  2.790E-02

      iter #   3 total cpu time :    47.1 secs   av.it.:   7.6
      thresh= 1.000E-02 alpha_mix =  0.700 |ddv_scf|^2 =  2.270E-07

      iter #   4 total cpu time :    48.1 secs   av.it.:   9.3
      thresh= 4.764E-05 alpha_mix =  0.700 |ddv_scf|^2 =  7.463E-09

      iter #   5 total cpu time :    48.9 secs   av.it.:   9.7
      thresh= 8.639E-06 alpha_mix =  0.700 |ddv_scf|^2 =  2.473E-10

      iter #   6 total cpu time :    50.0 secs   av.it.:   9.3
      thresh= 1.573E-06 alpha_mix =  0.700 |ddv_scf|^2 =  6.904E-10

      iter #   7 total cpu time :    50.7 secs   av.it.:   7.9
      thresh= 2.628E-06 alpha_mix =  0.700 |ddv_scf|^2 =  5.670E-11

      iter #   8 total cpu time :    51.6 secs   av.it.:   8.7
      thresh= 7.530E-07 alpha_mix =  0.700 |ddv_scf|^2 =  4.089E-13

      iter #   9 total cpu time :    52.6 secs   av.it.:   8.5
      thresh= 6.395E-08 alpha_mix =  0.700 |ddv_scf|^2 =  9.251E-15

      iter #  10 total cpu time :    53.6 secs   av.it.:   8.8
      thresh= 9.618E-09 alpha_mix =  0.700 |ddv_scf|^2 =  9.325E-16

     End of self-consistent calculation

     Convergence has been achieved 


     Representation #   2 mode #   2

     Self-consistent Calculation

      iter #   1 total cpu time :    54.5 secs   av.it.:   6.6
      thresh= 1.000E-02 alpha_mix =  0.700 |ddv_scf|^2 =  8.515E-04

      iter #   2 total cpu time :    55.2 secs   av.it.:   9.2
      thresh= 2.918E-03 alpha_mix =  0.700 |ddv_scf|^2 =  2.790E-02

      iter #   3 total cpu time :    55.8 secs   av.it.:   7.6
      thresh= 1.000E-02 alpha_mix =  0.700 |ddv_scf|^2 =  2.270E-07

      iter #   4 total cpu time :    56.8 secs   av.it.:   9.3
      thresh= 4.764E-05 alpha_mix =  0.700 |ddv_scf|^2 =  7.463E-09

      iter #   5 total cpu time :    57.7 secs   av.it.:   9.7
      thresh= 8.639E-06 alpha_mix =  0.700 |ddv_scf|^2 =  2.473E-10

      iter #   6 total cpu time :    58.5 secs   av.it.:   9.3
      thresh= 1.573E-06 alpha_mix =  0.700 |ddv_scf|^2 =  6.904E-10

      iter #   7 total cpu time :    59.4 secs   av.it.:   7.9
      thresh= 2.628E-06 alpha_mix =  0.700 |ddv_scf|^2 =  5.670E-11

      iter #   8 total cpu time :    60.3 secs   av.it.:   8.6
      thresh= 7.530E-07 alpha_mix =  0.700 |ddv_scf|^2 =  4.090E-13

      iter #   9 total cpu time :    62.0 secs   av.it.:   8.5
      thresh= 6.395E-08 alpha_mix =  0.700 |ddv_scf|^2 =  9.251E-15

      iter #  10 total cpu time :    62.7 secs   av.it.:   8.8
      thresh= 9.618E-09 alpha_mix =  0.700 |ddv_scf|^2 =  9.324E-16

     End of self-consistent calculation

     Convergence has been achieved 


     Representation #   3 modes #   3   4

     Self-consistent Calculation

      iter #   1 total cpu time :    64.1 secs   av.it.:   6.1
      thresh= 1.000E-02 alpha_mix =  0.700 |ddv_scf|^2 =  2.221E-08

      iter #   2 total cpu time :    80.3 secs   av.it.:  11.7
      thresh= 1.490E-05 alpha_mix =  0.700 |ddv_scf|^2 =  9.884E-10

      iter #   3 total cpu time :    84.9 secs   av.it.:  11.5
      thresh= 3.144E-06 alpha_mix =  0.700 |ddv_scf|^2 =  2.581E-11

      iter #   4 total cpu time :    93.8 secs   av.it.:  11.6
      thresh= 5.080E-07 alpha_mix =  0.700 |ddv_scf|^2 =  2.978E-13

      iter #   5 total cpu time :    97.1 secs   av.it.:  11.6
      thresh= 5.457E-08 alpha_mix =  0.700 |ddv_scf|^2 =  6.320E-15

      iter #   6 total cpu time :   100.0 secs   av.it.:  12.0
      thresh= 7.950E-09 alpha_mix =  0.700 |ddv_scf|^2 =  2.870E-17

     End of self-consistent calculation

     Convergence has been achieved 


     Representation #   4 modes #   5   6

     Self-consistent Calculation

      iter #   1 total cpu time :   101.6 secs   av.it.:   6.0
      thresh= 1.000E-02 alpha_mix =  0.700 |ddv_scf|^2 =  2.221E-08

      iter #   2 total cpu time :   103.6 secs   av.it.:  11.7
      thresh= 1.490E-05 alpha_mix =  0.700 |ddv_scf|^2 =  9.888E-10

      iter #   3 total cpu time :   105.5 secs   av.it.:  11.5
      thresh= 3.145E-06 alpha_mix =  0.700 |ddv_scf|^2 =  2.581E-11

      iter #   4 total cpu time :   107.5 secs   av.it.:  11.6
      thresh= 5.080E-07 alpha_mix =  0.700 |ddv_scf|^2 =  2.979E-13

      iter #   5 total cpu time :   110.3 secs   av.it.:  11.6
      thresh= 5.458E-08 alpha_mix =  0.700 |ddv_scf|^2 =  6.327E-15

      iter #   6 total cpu time :   112.0 secs   av.it.:  12.0
      thresh= 7.954E-09 alpha_mix =  0.700 |ddv_scf|^2 =  2.868E-17

     End of self-consistent calculation

     Convergence has been achieved 
 
     Number of q in the star =    8
     List of q in the star:
          1  -0.166666667   0.166666667  -0.166666667
          2   0.166666667   0.166666667   0.166666667
          3  -0.166666667  -0.166666667  -0.166666667
          4   0.166666667  -0.166666667   0.166666667
          5   0.166666667  -0.166666667  -0.166666667
          6   0.166666667   0.166666667  -0.166666667
          7  -0.166666667  -0.166666667   0.166666667
          8  -0.166666667   0.166666667   0.166666667

     Diagonalizing the dynamical matrix

     q = (   -0.166666667   0.166666667  -0.166666667 ) 

 **************************************************************************
     freq (    1) =       2.202810 [THz] =      73.477835 [cm-1]
     freq (    2) =       2.202810 [THz] =      73.477835 [cm-1]
     freq (    3) =       4.748461 [THz] =     158.391624 [cm-1]
     freq (    4) =      15.023985 [THz] =     501.146186 [cm-1]
     freq (    5) =      15.065898 [THz] =     502.544248 [cm-1]
     freq (    6) =      15.065898 [THz] =     502.544248 [cm-1]
 **************************************************************************

     Mode symmetry, C_3v (3m)   point group:

     freq (   1-   2) =         73.5  [cm-1]   --> E    L_3           
     freq (   3-   3) =        158.4  [cm-1]   --> A_1  L_1           
     freq (   4-   4) =        501.1  [cm-1]   --> A_1  L_1           
     freq (   5-   6) =        502.5  [cm-1]   --> E    L_3           

     Calculation of q =   -0.3333333   0.3333333  -0.3333333
 
     Parallelization info
     --------------------
     sticks:   dense  smooth     PW     G-vecs:    dense   smooth      PW
     Min          55      55     17                 1158     1158     211
     Max          56      56     18                 1161     1161     216
     Sum        1003    1003    313                20875    20875    3839
 
     Using Slab Decomposition
 

     Title: 
     default                                                                    


     bravais-lattice index     =            2
     lattice parameter (alat)  =      10.1899  a.u.
     unit-cell volume          =     264.5151 (a.u.)^3
     number of atoms/cell      =            2
     number of atomic types    =            1
     number of electrons       =         8.00
     number of Kohn-Sham states=            4
     kinetic-energy cutoff     =      70.0000  Ry
     charge density cutoff     =     280.0000  Ry
     Exchange-correlation= PW
                           (   1   4   0   0   0   0   0)

     celldm(1)=  10.189905  celldm(2)=   0.000000  celldm(3)=   0.000000
     celldm(4)=   0.000000  celldm(5)=   0.000000  celldm(6)=   0.000000

     crystal axes: (cart. coord. in units of alat)
               a(1) = (  -0.500000   0.000000   0.500000 )  
               a(2) = (   0.000000   0.500000   0.500000 )  
               a(3) = (  -0.500000   0.500000   0.000000 )  

     reciprocal axes: (cart. coord. in units 2 pi/alat)
               b(1) = ( -1.000000 -1.000000  1.000000 )  
               b(2) = (  1.000000  1.000000  1.000000 )  
               b(3) = ( -1.000000  1.000000 -1.000000 )  


     PseudoPot. # 1 for Si read from file:
     ./pseudos/Si.nc.UPF
     MD5 check sum: 9e2d726316af3d4752eea8ab0afbb951
     Pseudo is Norm-conserving + core correction, Zval =  4.0
     Generated using ONCVPSP code by D. R. Hamann
     Using radial grid of 1510 points,  6 beta functions with: 
                l(1) =   0
                l(2) =   0
                l(3) =   1
                l(4) =   1
                l(5) =   2
                l(6) =   2

     atomic species   valence    mass     pseudopotential
        Si             4.00    28.08550     Si( 1.00)

     48 Sym. Ops., with inversion, found



   Cartesian axes

     site n.     atom                  positions (alat units)
         1           Si  tau(   1) = (   0.0000000   0.0000000   0.0000000  )
         2           Si  tau(   2) = (  -0.2500000   0.2500000   0.2500000  )

     number of k points=   364

     Number of k-points >= 100: set verbosity='high' to print them.

     Dense  grid:    20875 G-vectors     FFT dimensions: (  40,  40,  40)

     Estimated max dynamical RAM per process >       2.02 MB

     Estimated total dynamical RAM >     109.13 MB

     The potential is recalculated from file :
     /fastscratch/tsievers/QE_TMP_DIR/_ph0/si_ph_bench_poolsize_18_n_procs_54_3.save/charge-density

     Starting wfcs are    8 atomic wfcs

     Band Structure Calculation
     Davidson diagonalization with overlap

     ethr =  1.25E-10,  avg # of iterations = 12.9

     total cpu time spent up to now is        4.0 secs

     End of band structure calculation

     Number of k-points >= 100: set verbosity='high' to print the bands.

     highest occupied level (ev):     6.1106

     Writing config to output data dir /fastscratch/tsievers/QE_TMP_DIR/_ph0/si_ph_bench_poolsize_18_n_procs_54_3.save/

     default                                                                    

     bravais-lattice index     =            2
     lattice parameter (alat)  =      10.1899  a.u.
     unit-cell volume          =     264.5151 (a.u.)^3
     number of atoms/cell      =            2
     number of atomic types    =            1
     kinetic-energy cut-off    =      70.0000  Ry
     charge density cut-off    =     280.0000  Ry
     convergence threshold     =      1.0E-15
     beta                      =       0.7000
     number of iterations used =            4
     Exchange-correlation= PW
                           (   1   4   0   0   0   0   0)


     celldm(1)=   10.18990  celldm(2)=    0.00000  celldm(3)=    0.00000
     celldm(4)=    0.00000  celldm(5)=    0.00000  celldm(6)=    0.00000

     crystal axes: (cart. coord. in units of alat)
               a(1) = ( -0.5000  0.0000  0.5000 )  
               a(2) = (  0.0000  0.5000  0.5000 )  
               a(3) = ( -0.5000  0.5000  0.0000 )  

     reciprocal axes: (cart. coord. in units 2 pi/alat)
               b(1) = ( -1.0000 -1.0000  1.0000 )  
               b(2) = (  1.0000  1.0000  1.0000 )  
               b(3) = ( -1.0000  1.0000 -1.0000 )  


     Atoms inside the unit cell: 

     Cartesian axes

     site n.  atom      mass           positions (alat units)
        1     Si  28.0855   tau(    1) = (    0.00000    0.00000    0.00000  )
        2     Si  28.0855   tau(    2) = (   -0.25000    0.25000    0.25000  )

     Computing dynamical matrix for 
                    q = (  -0.3333333   0.3333333  -0.3333333 )
 
      6 Sym.Ops. (no q -> -q+G )


     G cutoff =  736.4420  (   1161 G-vectors)     FFT grid: ( 40, 40, 40)
     number of k points=   364

     PseudoPot. # 1 for Si read from file:
     ./pseudos/Si.nc.UPF
     MD5 check sum: 9e2d726316af3d4752eea8ab0afbb951
     Pseudo is Norm-conserving + core correction, Zval =  4.0
     Generated using ONCVPSP code by D. R. Hamann
     Using radial grid of 1510 points,  6 beta functions with: 
                l(1) =   0
                l(2) =   0
                l(3) =   1
                l(4) =   1
                l(5) =   2
                l(6) =   2

     Mode symmetry, C_3v (3m)   point group:


     Atomic displacements:
     There are    4 irreducible representations

     Representation     1      1 modes -  To be done

     Representation     2      1 modes -  To be done

     Representation     3      2 modes -  To be done

     Representation     4      2 modes -  To be done



     Alpha used in Ewald sum =   2.8000
     PHONON       :   1m15.60s CPU   1m55.76s WALL



     Representation #   1 mode #   1

     Self-consistent Calculation

      iter #   1 total cpu time :   116.3 secs   av.it.:   6.5
      thresh= 1.000E-02 alpha_mix =  0.700 |ddv_scf|^2 =  5.392E-05

      iter #   2 total cpu time :   117.2 secs   av.it.:   9.9
      thresh= 7.343E-04 alpha_mix =  0.700 |ddv_scf|^2 =  4.303E-04

      iter #   3 total cpu time :   118.5 secs   av.it.:   8.6
      thresh= 2.074E-03 alpha_mix =  0.700 |ddv_scf|^2 =  7.922E-08

      iter #   4 total cpu time :   119.6 secs   av.it.:  10.1
      thresh= 2.815E-05 alpha_mix =  0.700 |ddv_scf|^2 =  1.610E-09

      iter #   5 total cpu time :   120.3 secs   av.it.:  10.1
      thresh= 4.012E-06 alpha_mix =  0.700 |ddv_scf|^2 =  1.694E-11

      iter #   6 total cpu time :   121.4 secs   av.it.:  10.6
      thresh= 4.116E-07 alpha_mix =  0.700 |ddv_scf|^2 =  1.422E-12

      iter #   7 total cpu time :   122.4 secs   av.it.:  10.6
      thresh= 1.193E-07 alpha_mix =  0.700 |ddv_scf|^2 =  6.694E-14

      iter #   8 total cpu time :   123.4 secs   av.it.:  10.3
      thresh= 2.587E-08 alpha_mix =  0.700 |ddv_scf|^2 =  4.108E-13

      iter #   9 total cpu time :   124.3 secs   av.it.:   9.0
      thresh= 6.410E-08 alpha_mix =  0.700 |ddv_scf|^2 =  2.575E-15

      iter #  10 total cpu time :   125.1 secs   av.it.:   9.5
      thresh= 5.075E-09 alpha_mix =  0.700 |ddv_scf|^2 =  9.046E-16

     End of self-consistent calculation

     Convergence has been achieved 


     Representation #   2 mode #   2

     Self-consistent Calculation

      iter #   1 total cpu time :   146.2 secs   av.it.:   6.5
      thresh= 1.000E-02 alpha_mix =  0.700 |ddv_scf|^2 =  5.392E-05

      iter #   2 total cpu time :   147.8 secs   av.it.:   9.9
      thresh= 7.343E-04 alpha_mix =  0.700 |ddv_scf|^2 =  4.303E-04

      iter #   3 total cpu time :   149.7 secs   av.it.:   8.6
      thresh= 2.074E-03 alpha_mix =  0.700 |ddv_scf|^2 =  7.922E-08

      iter #   4 total cpu time :   150.9 secs   av.it.:  10.1
      thresh= 2.815E-05 alpha_mix =  0.700 |ddv_scf|^2 =  1.610E-09

      iter #   5 total cpu time :   151.7 secs   av.it.:  10.1
      thresh= 4.012E-06 alpha_mix =  0.700 |ddv_scf|^2 =  1.694E-11

      iter #   6 total cpu time :   152.5 secs   av.it.:  10.6
      thresh= 4.116E-07 alpha_mix =  0.700 |ddv_scf|^2 =  1.422E-12

      iter #   7 total cpu time :   153.5 secs   av.it.:  10.6
      thresh= 1.193E-07 alpha_mix =  0.700 |ddv_scf|^2 =  6.682E-14

      iter #   8 total cpu time :   154.5 secs   av.it.:  10.3
      thresh= 2.585E-08 alpha_mix =  0.700 |ddv_scf|^2 =  4.102E-13

      iter #   9 total cpu time :   155.7 secs   av.it.:   8.9
      thresh= 6.405E-08 alpha_mix =  0.700 |ddv_scf|^2 =  2.561E-15

      iter #  10 total cpu time :   156.4 secs   av.it.:   9.5
      thresh= 5.061E-09 alpha_mix =  0.700 |ddv_scf|^2 =  9.104E-16

     End of self-consistent calculation

     Convergence has been achieved 


     Representation #   3 modes #   3   4

     Self-consistent Calculation

      iter #   1 total cpu time :   161.9 secs   av.it.:   6.1
      thresh= 1.000E-02 alpha_mix =  0.700 |ddv_scf|^2 =  3.025E-08

      iter #   2 total cpu time :   164.2 secs   av.it.:  11.6
      thresh= 1.739E-05 alpha_mix =  0.700 |ddv_scf|^2 =  2.095E-09

      iter #   3 total cpu time :   167.0 secs   av.it.:  11.4
      thresh= 4.578E-06 alpha_mix =  0.700 |ddv_scf|^2 =  3.034E-11

      iter #   4 total cpu time :   171.2 secs   av.it.:  11.6
      thresh= 5.508E-07 alpha_mix =  0.700 |ddv_scf|^2 =  3.044E-13

      iter #   5 total cpu time :   173.4 secs   av.it.:  11.6
      thresh= 5.517E-08 alpha_mix =  0.700 |ddv_scf|^2 =  5.925E-15

      iter #   6 total cpu time :   175.0 secs   av.it.:  11.9
      thresh= 7.698E-09 alpha_mix =  0.700 |ddv_scf|^2 =  4.034E-17

     End of self-consistent calculation

     Convergence has been achieved 


     Representation #   4 modes #   5   6

     Self-consistent Calculation

      iter #   1 total cpu time :   177.2 secs   av.it.:   6.0
      thresh= 1.000E-02 alpha_mix =  0.700 |ddv_scf|^2 =  3.026E-08

      iter #   2 total cpu time :   180.5 secs   av.it.:  11.6
      thresh= 1.740E-05 alpha_mix =  0.700 |ddv_scf|^2 =  2.098E-09

      iter #   3 total cpu time :   182.6 secs   av.it.:  11.4
      thresh= 4.580E-06 alpha_mix =  0.700 |ddv_scf|^2 =  3.033E-11

      iter #   4 total cpu time :   184.8 secs   av.it.:  11.6
      thresh= 5.507E-07 alpha_mix =  0.700 |ddv_scf|^2 =  3.043E-13

      iter #   5 total cpu time :   188.0 secs   av.it.:  11.6
      thresh= 5.516E-08 alpha_mix =  0.700 |ddv_scf|^2 =  5.919E-15

      iter #   6 total cpu time :   192.5 secs   av.it.:  11.9
      thresh= 7.693E-09 alpha_mix =  0.700 |ddv_scf|^2 =  4.031E-17

     End of self-consistent calculation

     Convergence has been achieved 
 
     Number of q in the star =    8
     List of q in the star:
          1  -0.333333333   0.333333333  -0.333333333
          2   0.333333333   0.333333333   0.333333333
          3  -0.333333333  -0.333333333  -0.333333333
          4   0.333333333  -0.333333333   0.333333333
          5   0.333333333  -0.333333333  -0.333333333
          6   0.333333333   0.333333333  -0.333333333
          7  -0.333333333  -0.333333333   0.333333333
          8  -0.333333333   0.333333333   0.333333333

     Diagonalizing the dynamical matrix

     q = (   -0.333333333   0.333333333  -0.333333333 ) 

 **************************************************************************
     freq (    1) =       3.044147 [THz] =     101.541816 [cm-1]
     freq (    2) =       3.044147 [THz] =     101.541816 [cm-1]
     freq (    3) =       8.746993 [THz] =     291.768272 [cm-1]
     freq (    4) =      13.857036 [THz] =     462.220969 [cm-1]
     freq (    5) =      14.763308 [THz] =     492.450935 [cm-1]
     freq (    6) =      14.763308 [THz] =     492.450935 [cm-1]
 **************************************************************************

     Mode symmetry, C_3v (3m)   point group:

     freq (   1-   2) =        101.5  [cm-1]   --> E    L_3           
     freq (   3-   3) =        291.8  [cm-1]   --> A_1  L_1           
     freq (   4-   4) =        462.2  [cm-1]   --> A_1  L_1           
     freq (   5-   6) =        492.5  [cm-1]   --> E    L_3           

     Calculation of q =    0.5000000  -0.5000000   0.5000000
 
     Parallelization info
     --------------------
     sticks:   dense  smooth     PW     G-vecs:    dense   smooth      PW
     Min          55      55     18                 1158     1158     222
     Max          56      56     19                 1161     1161     224
     Sum        1003    1003    337                20875    20875    4015
 
     Using Slab Decomposition
 

     Title: 
     default                                                                    


     bravais-lattice index     =            2
     lattice parameter (alat)  =      10.1899  a.u.
     unit-cell volume          =     264.5151 (a.u.)^3
     number of atoms/cell      =            2
     number of atomic types    =            1
     number of electrons       =         8.00
     number of Kohn-Sham states=            4
     kinetic-energy cutoff     =      70.0000  Ry
     charge density cutoff     =     280.0000  Ry
     Exchange-correlation= PW
                           (   1   4   0   0   0   0   0)

     celldm(1)=  10.189905  celldm(2)=   0.000000  celldm(3)=   0.000000
     celldm(4)=   0.000000  celldm(5)=   0.000000  celldm(6)=   0.000000

     crystal axes: (cart. coord. in units of alat)
               a(1) = (  -0.500000   0.000000   0.500000 )  
               a(2) = (   0.000000   0.500000   0.500000 )  
               a(3) = (  -0.500000   0.500000   0.000000 )  

     reciprocal axes: (cart. coord. in units 2 pi/alat)
               b(1) = ( -1.000000 -1.000000  1.000000 )  
               b(2) = (  1.000000  1.000000  1.000000 )  
               b(3) = ( -1.000000  1.000000 -1.000000 )  


     PseudoPot. # 1 for Si read from file:
     ./pseudos/Si.nc.UPF
     MD5 check sum: 9e2d726316af3d4752eea8ab0afbb951
     Pseudo is Norm-conserving + core correction, Zval =  4.0
     Generated using ONCVPSP code by D. R. Hamann
     Using radial grid of 1510 points,  6 beta functions with: 
                l(1) =   0
                l(2) =   0
                l(3) =   1
                l(4) =   1
                l(5) =   2
                l(6) =   2

     atomic species   valence    mass     pseudopotential
        Si             4.00    28.08550     Si( 1.00)

     48 Sym. Ops., with inversion, found



   Cartesian axes

     site n.     atom                  positions (alat units)
         1           Si  tau(   1) = (   0.0000000   0.0000000   0.0000000  )
         2           Si  tau(   2) = (  -0.2500000   0.2500000   0.2500000  )

     number of k points=   182

     Number of k-points >= 100: set verbosity='high' to print them.

     Dense  grid:    20875 G-vectors     FFT dimensions: (  40,  40,  40)

     Estimated max dynamical RAM per process >       2.04 MB

     Estimated total dynamical RAM >     109.91 MB

     The potential is recalculated from file :
     /fastscratch/tsievers/QE_TMP_DIR/_ph0/si_ph_bench_poolsize_18_n_procs_54_3.save/charge-density

     Starting wfcs are    8 atomic wfcs

     Band Structure Calculation
     Davidson diagonalization with overlap

     ethr =  1.25E-10,  avg # of iterations = 12.9

     total cpu time spent up to now is        5.2 secs

     End of band structure calculation

     Number of k-points >= 100: set verbosity='high' to print the bands.

     highest occupied level (ev):     6.1106

     Writing config to output data dir /fastscratch/tsievers/QE_TMP_DIR/_ph0/si_ph_bench_poolsize_18_n_procs_54_3.save/

     default                                                                    

     bravais-lattice index     =            2
     lattice parameter (alat)  =      10.1899  a.u.
     unit-cell volume          =     264.5151 (a.u.)^3
     number of atoms/cell      =            2
     number of atomic types    =            1
     kinetic-energy cut-off    =      70.0000  Ry
     charge density cut-off    =     280.0000  Ry
     convergence threshold     =      1.0E-15
     beta                      =       0.7000
     number of iterations used =            4
     Exchange-correlation= PW
                           (   1   4   0   0   0   0   0)


     celldm(1)=   10.18990  celldm(2)=    0.00000  celldm(3)=    0.00000
     celldm(4)=    0.00000  celldm(5)=    0.00000  celldm(6)=    0.00000

     crystal axes: (cart. coord. in units of alat)
               a(1) = ( -0.5000  0.0000  0.5000 )  
               a(2) = (  0.0000  0.5000  0.5000 )  
               a(3) = ( -0.5000  0.5000  0.0000 )  

     reciprocal axes: (cart. coord. in units 2 pi/alat)
               b(1) = ( -1.0000 -1.0000  1.0000 )  
               b(2) = (  1.0000  1.0000  1.0000 )  
               b(3) = ( -1.0000  1.0000 -1.0000 )  


     Atoms inside the unit cell: 

     Cartesian axes

     site n.  atom      mass           positions (alat units)
        1     Si  28.0855   tau(    1) = (    0.00000    0.00000    0.00000  )
        2     Si  28.0855   tau(    2) = (   -0.25000    0.25000    0.25000  )

     Computing dynamical matrix for 
                    q = (   0.5000000  -0.5000000   0.5000000 )
 
     13 Sym.Ops. (with q -> -q+G )


     G cutoff =  736.4420  (   1161 G-vectors)     FFT grid: ( 40, 40, 40)
     number of k points=   182

     PseudoPot. # 1 for Si read from file:
     ./pseudos/Si.nc.UPF
     MD5 check sum: 9e2d726316af3d4752eea8ab0afbb951
     Pseudo is Norm-conserving + core correction, Zval =  4.0
     Generated using ONCVPSP code by D. R. Hamann
     Using radial grid of 1510 points,  6 beta functions with: 
                l(1) =   0
                l(2) =   0
                l(3) =   1
                l(4) =   1
                l(5) =   2
                l(6) =   2


     Atomic displacements:
     There are    4 irreducible representations

     Representation     1      1 modes -  To be done

     Representation     2      1 modes -  To be done

     Representation     3      2 modes -  To be done

     Representation     4      2 modes -  To be done



     Alpha used in Ewald sum =   2.8000
     PHONON       :   2m 6.24s CPU   3m20.32s WALL



     Representation #   1 mode #   1

     Self-consistent Calculation

      iter #   1 total cpu time :   200.6 secs   av.it.:   5.8
      thresh= 1.000E-02 alpha_mix =  0.700 |ddv_scf|^2 =  1.725E-06

      iter #   2 total cpu time :   201.1 secs   av.it.:  10.2
      thresh= 1.313E-04 alpha_mix =  0.700 |ddv_scf|^2 =  1.592E-06

      iter #   3 total cpu time :   201.5 secs   av.it.:   9.6
      thresh= 1.262E-04 alpha_mix =  0.700 |ddv_scf|^2 =  2.130E-10

      iter #   4 total cpu time :   203.1 secs   av.it.:  10.3
      thresh= 1.460E-06 alpha_mix =  0.700 |ddv_scf|^2 =  3.670E-12

      iter #   5 total cpu time :   204.0 secs   av.it.:  10.1
      thresh= 1.916E-07 alpha_mix =  0.700 |ddv_scf|^2 =  5.247E-14

      iter #   6 total cpu time :   204.4 secs   av.it.:  10.1
      thresh= 2.291E-08 alpha_mix =  0.700 |ddv_scf|^2 =  6.874E-16

     End of self-consistent calculation

     Convergence has been achieved 


     Representation #   2 mode #   2

     Self-consistent Calculation

      iter #   1 total cpu time :   204.9 secs   av.it.:   6.7
      thresh= 1.000E-02 alpha_mix =  0.700 |ddv_scf|^2 =  2.635E-05

      iter #   2 total cpu time :   205.3 secs   av.it.:  10.3
      thresh= 5.133E-04 alpha_mix =  0.700 |ddv_scf|^2 =  8.609E-05

      iter #   3 total cpu time :   206.0 secs   av.it.:   9.3
      thresh= 9.278E-04 alpha_mix =  0.700 |ddv_scf|^2 =  5.088E-09

      iter #   4 total cpu time :   206.5 secs   av.it.:  10.0
      thresh= 7.133E-06 alpha_mix =  0.700 |ddv_scf|^2 =  1.069E-10

      iter #   5 total cpu time :   207.4 secs   av.it.:  10.5
      thresh= 1.034E-06 alpha_mix =  0.700 |ddv_scf|^2 =  5.333E-12

      iter #   6 total cpu time :   207.9 secs   av.it.:  10.3
      thresh= 2.309E-07 alpha_mix =  0.700 |ddv_scf|^2 =  1.504E-13

      iter #   7 total cpu time :   208.3 secs   av.it.:   9.7
      thresh= 3.878E-08 alpha_mix =  0.700 |ddv_scf|^2 =  2.751E-17

     End of self-consistent calculation

     Convergence has been achieved 


     Representation #   3 modes #   3   4

     Self-consistent Calculation

      iter #   1 total cpu time :   209.0 secs   av.it.:   6.1
      thresh= 1.000E-02 alpha_mix =  0.700 |ddv_scf|^2 =  6.089E-08

      iter #   2 total cpu time :   210.5 secs   av.it.:  11.5
      thresh= 2.468E-05 alpha_mix =  0.700 |ddv_scf|^2 =  5.161E-09

      iter #   3 total cpu time :   211.4 secs   av.it.:  11.3
      thresh= 7.184E-06 alpha_mix =  0.700 |ddv_scf|^2 =  3.456E-11

      iter #   4 total cpu time :   212.4 secs   av.it.:  11.4
      thresh= 5.879E-07 alpha_mix =  0.700 |ddv_scf|^2 =  3.865E-14

      iter #   5 total cpu time :   214.2 secs   av.it.:  11.7
      thresh= 1.966E-08 alpha_mix =  0.700 |ddv_scf|^2 =  5.087E-16

     End of self-consistent calculation

     Convergence has been achieved 


     Representation #   4 modes #   5   6

     Self-consistent Calculation

      iter #   1 total cpu time :   215.1 secs   av.it.:   5.5
      thresh= 1.000E-02 alpha_mix =  0.700 |ddv_scf|^2 =  6.911E-09

      iter #   2 total cpu time :   216.1 secs   av.it.:  11.5
      thresh= 8.314E-06 alpha_mix =  0.700 |ddv_scf|^2 =  1.813E-10

      iter #   3 total cpu time :   217.3 secs   av.it.:  11.5
      thresh= 1.346E-06 alpha_mix =  0.700 |ddv_scf|^2 =  1.114E-11

      iter #   4 total cpu time :   220.0 secs   av.it.:  11.5
      thresh= 3.338E-07 alpha_mix =  0.700 |ddv_scf|^2 =  4.764E-14

      iter #   5 total cpu time :   220.9 secs   av.it.:  11.5
      thresh= 2.183E-08 alpha_mix =  0.700 |ddv_scf|^2 =  7.611E-16

     End of self-consistent calculation

     Convergence has been achieved 
 
     Number of q in the star =    4
     List of q in the star:
          1   0.500000000  -0.500000000   0.500000000
          2   0.500000000   0.500000000   0.500000000
          3  -0.500000000   0.500000000   0.500000000
          4   0.500000000   0.500000000  -0.500000000

     Diagonalizing the dynamical matrix

     q = (    0.500000000  -0.500000000   0.500000000 ) 

 **************************************************************************
     freq (    1) =       3.157233 [THz] =     105.313941 [cm-1]
     freq (    2) =       3.157233 [THz] =     105.313941 [cm-1]
     freq (    3) =      11.169101 [THz] =     372.561104 [cm-1]
     freq (    4) =      12.390651 [THz] =     413.307637 [cm-1]
     freq (    5) =      14.704268 [THz] =     490.481579 [cm-1]
     freq (    6) =      14.704268 [THz] =     490.481579 [cm-1]
 **************************************************************************

     Calculation of q =    0.0000000   0.3333333   0.0000000
 
     Parallelization info
     --------------------
     sticks:   dense  smooth     PW     G-vecs:    dense   smooth      PW
     Min          55      55     17                 1158     1158     206
     Max          56      56     18                 1161     1161     209
     Sum        1003    1003    313                20875    20875    3719
 
     Using Slab Decomposition
 

     Title: 
     default                                                                    


     bravais-lattice index     =            2
     lattice parameter (alat)  =      10.1899  a.u.
     unit-cell volume          =     264.5151 (a.u.)^3
     number of atoms/cell      =            2
     number of atomic types    =            1
     number of electrons       =         8.00
     number of Kohn-Sham states=            4
     kinetic-energy cutoff     =      70.0000  Ry
     charge density cutoff     =     280.0000  Ry
     Exchange-correlation= PW
                           (   1   4   0   0   0   0   0)

     celldm(1)=  10.189905  celldm(2)=   0.000000  celldm(3)=   0.000000
     celldm(4)=   0.000000  celldm(5)=   0.000000  celldm(6)=   0.000000

     crystal axes: (cart. coord. in units of alat)
               a(1) = (  -0.500000   0.000000   0.500000 )  
               a(2) = (   0.000000   0.500000   0.500000 )  
               a(3) = (  -0.500000   0.500000   0.000000 )  

     reciprocal axes: (cart. coord. in units 2 pi/alat)
               b(1) = ( -1.000000 -1.000000  1.000000 )  
               b(2) = (  1.000000  1.000000  1.000000 )  
               b(3) = ( -1.000000  1.000000 -1.000000 )  


     PseudoPot. # 1 for Si read from file:
     ./pseudos/Si.nc.UPF
     MD5 check sum: 9e2d726316af3d4752eea8ab0afbb951
     Pseudo is Norm-conserving + core correction, Zval =  4.0
     Generated using ONCVPSP code by D. R. Hamann
     Using radial grid of 1510 points,  6 beta functions with: 
                l(1) =   0
                l(2) =   0
                l(3) =   1
                l(4) =   1
                l(5) =   2
                l(6) =   2

     atomic species   valence    mass     pseudopotential
        Si             4.00    28.08550     Si( 1.00)

     48 Sym. Ops., with inversion, found



   Cartesian axes

     site n.     atom                  positions (alat units)
         1           Si  tau(   1) = (   0.0000000   0.0000000   0.0000000  )
         2           Si  tau(   2) = (  -0.2500000   0.2500000   0.2500000  )

     number of k points=   252

     Number of k-points >= 100: set verbosity='high' to print them.

     Dense  grid:    20875 G-vectors     FFT dimensions: (  40,  40,  40)

     Estimated max dynamical RAM per process >       2.01 MB

     Estimated total dynamical RAM >     108.48 MB

     The potential is recalculated from file :
     /fastscratch/tsievers/QE_TMP_DIR/_ph0/si_ph_bench_poolsize_18_n_procs_54_3.save/charge-density

     Starting wfcs are    8 atomic wfcs

     Band Structure Calculation
     Davidson diagonalization with overlap

     ethr =  1.25E-10,  avg # of iterations = 12.8

     total cpu time spent up to now is        6.6 secs

     End of band structure calculation

     Number of k-points >= 100: set verbosity='high' to print the bands.

     highest occupied level (ev):     6.1106

     Writing config to output data dir /fastscratch/tsievers/QE_TMP_DIR/_ph0/si_ph_bench_poolsize_18_n_procs_54_3.save/

     default                                                                    

     bravais-lattice index     =            2
     lattice parameter (alat)  =      10.1899  a.u.
     unit-cell volume          =     264.5151 (a.u.)^3
     number of atoms/cell      =            2
     number of atomic types    =            1
     kinetic-energy cut-off    =      70.0000  Ry
     charge density cut-off    =     280.0000  Ry
     convergence threshold     =      1.0E-15
     beta                      =       0.7000
     number of iterations used =            4
     Exchange-correlation= PW
                           (   1   4   0   0   0   0   0)


     celldm(1)=   10.18990  celldm(2)=    0.00000  celldm(3)=    0.00000
     celldm(4)=    0.00000  celldm(5)=    0.00000  celldm(6)=    0.00000

     crystal axes: (cart. coord. in units of alat)
               a(1) = ( -0.5000  0.0000  0.5000 )  
               a(2) = (  0.0000  0.5000  0.5000 )  
               a(3) = ( -0.5000  0.5000  0.0000 )  

     reciprocal axes: (cart. coord. in units 2 pi/alat)
               b(1) = ( -1.0000 -1.0000  1.0000 )  
               b(2) = (  1.0000  1.0000  1.0000 )  
               b(3) = ( -1.0000  1.0000 -1.0000 )  


     Atoms inside the unit cell: 

     Cartesian axes

     site n.  atom      mass           positions (alat units)
        1     Si  28.0855   tau(    1) = (    0.00000    0.00000    0.00000  )
        2     Si  28.0855   tau(    2) = (   -0.25000    0.25000    0.25000  )

     Computing dynamical matrix for 
                    q = (   0.0000000   0.3333333   0.0000000 )
 
      8 Sym.Ops. (no q -> -q+G )


     G cutoff =  736.4420  (   1161 G-vectors)     FFT grid: ( 40, 40, 40)
     number of k points=   252

     PseudoPot. # 1 for Si read from file:
     ./pseudos/Si.nc.UPF
     MD5 check sum: 9e2d726316af3d4752eea8ab0afbb951
     Pseudo is Norm-conserving + core correction, Zval =  4.0
     Generated using ONCVPSP code by D. R. Hamann
     Using radial grid of 1510 points,  6 beta functions with: 
                l(1) =   0
                l(2) =   0
                l(3) =   1
                l(4) =   1
                l(5) =   2
                l(6) =   2

     Mode symmetry, C_4v (4mm)  point group:


     Atomic displacements:
     There are    4 irreducible representations

     Representation     1      1 modes -  To be done

     Representation     2      1 modes -  To be done

     Representation     3      2 modes -  To be done

     Representation     4      2 modes -  To be done



     Alpha used in Ewald sum =   2.8000
     PHONON       :   2m25.80s CPU   3m54.62s WALL



     Representation #   1 mode #   1

     Self-consistent Calculation

      iter #   1 total cpu time :   235.4 secs   av.it.:   6.8
      thresh= 1.000E-02 alpha_mix =  0.700 |ddv_scf|^2 =  1.144E-03

      iter #   2 total cpu time :   236.8 secs   av.it.:   9.4
      thresh= 3.382E-03 alpha_mix =  0.700 |ddv_scf|^2 =  3.487E-02

      iter #   3 total cpu time :   237.6 secs   av.it.:   8.1
      thresh= 1.000E-02 alpha_mix =  0.700 |ddv_scf|^2 =  3.219E-08

      iter #   4 total cpu time :   238.1 secs   av.it.:   9.2
      thresh= 1.794E-05 alpha_mix =  0.700 |ddv_scf|^2 =  1.517E-09

      iter #   5 total cpu time :   239.0 secs   av.it.:   8.9
      thresh= 3.894E-06 alpha_mix =  0.700 |ddv_scf|^2 =  4.952E-10

      iter #   6 total cpu time :   239.9 secs   av.it.:   8.4
      thresh= 2.225E-06 alpha_mix =  0.700 |ddv_scf|^2 =  6.514E-13

      iter #   7 total cpu time :   243.4 secs   av.it.:   8.7
      thresh= 8.071E-08 alpha_mix =  0.700 |ddv_scf|^2 =  1.540E-14

      iter #   8 total cpu time :   244.0 secs   av.it.:   8.6
      thresh= 1.241E-08 alpha_mix =  0.700 |ddv_scf|^2 =  1.913E-16

     End of self-consistent calculation

     Convergence has been achieved 


     Representation #   2 mode #   2

     Self-consistent Calculation

      iter #   1 total cpu time :   245.9 secs   av.it.:   5.9
      thresh= 1.000E-02 alpha_mix =  0.700 |ddv_scf|^2 =  1.746E-07

      iter #   2 total cpu time :   246.5 secs   av.it.:  10.7
      thresh= 4.178E-05 alpha_mix =  0.700 |ddv_scf|^2 =  2.824E-08

      iter #   3 total cpu time :   247.1 secs   av.it.:  10.5
      thresh= 1.680E-05 alpha_mix =  0.700 |ddv_scf|^2 =  3.571E-10

      iter #   4 total cpu time :   247.7 secs   av.it.:  10.5
      thresh= 1.890E-06 alpha_mix =  0.700 |ddv_scf|^2 =  1.483E-11

      iter #   5 total cpu time :   248.3 secs   av.it.:  10.6
      thresh= 3.851E-07 alpha_mix =  0.700 |ddv_scf|^2 =  3.380E-14

      iter #   6 total cpu time :   250.3 secs   av.it.:  10.7
      thresh= 1.838E-08 alpha_mix =  0.700 |ddv_scf|^2 =  6.746E-16

     End of self-consistent calculation

     Convergence has been achieved 


     Representation #   3 modes #   3   4

     Self-consistent Calculation

      iter #   1 total cpu time :   253.6 secs   av.it.:   6.1
      thresh= 1.000E-02 alpha_mix =  0.700 |ddv_scf|^2 =  3.160E-08

      iter #   2 total cpu time :   254.9 secs   av.it.:  11.6
      thresh= 1.778E-05 alpha_mix =  0.700 |ddv_scf|^2 =  2.881E-09

      iter #   3 total cpu time :   256.8 secs   av.it.:  11.4
      thresh= 5.367E-06 alpha_mix =  0.700 |ddv_scf|^2 =  3.357E-11

      iter #   4 total cpu time :   258.8 secs   av.it.:  11.6
      thresh= 5.794E-07 alpha_mix =  0.700 |ddv_scf|^2 =  3.775E-13

      iter #   5 total cpu time :   260.9 secs   av.it.:  11.5
      thresh= 6.144E-08 alpha_mix =  0.700 |ddv_scf|^2 =  6.267E-15

      iter #   6 total cpu time :   265.1 secs   av.it.:  11.9
      thresh= 7.917E-09 alpha_mix =  0.700 |ddv_scf|^2 =  2.551E-17

     End of self-consistent calculation

     Convergence has been achieved 


     Representation #   4 modes #   5   6

     Self-consistent Calculation

      iter #   1 total cpu time :   269.9 secs   av.it.:   6.0
      thresh= 1.000E-02 alpha_mix =  0.700 |ddv_scf|^2 =  4.166E-08

      iter #   2 total cpu time :   273.3 secs   av.it.:  11.5
      thresh= 2.041E-05 alpha_mix =  0.700 |ddv_scf|^2 =  3.928E-09

      iter #   3 total cpu time :   274.5 secs   av.it.:  11.2
      thresh= 6.268E-06 alpha_mix =  0.700 |ddv_scf|^2 =  3.554E-11

      iter #   4 total cpu time :   278.1 secs   av.it.:  11.5
      thresh= 5.962E-07 alpha_mix =  0.700 |ddv_scf|^2 =  2.416E-13

      iter #   5 total cpu time :   279.5 secs   av.it.:  11.4
      thresh= 4.915E-08 alpha_mix =  0.700 |ddv_scf|^2 =  5.736E-15

      iter #   6 total cpu time :   280.7 secs   av.it.:  11.9
      thresh= 7.574E-09 alpha_mix =  0.700 |ddv_scf|^2 =  2.429E-17

     End of self-consistent calculation

     Convergence has been achieved 
 
     Number of q in the star =    6
     List of q in the star:
          1   0.000000000   0.333333333   0.000000000
          2   0.333333333   0.000000000   0.000000000
          3   0.000000000   0.000000000   0.333333333
          4   0.000000000  -0.333333333   0.000000000
          5  -0.333333333   0.000000000   0.000000000
          6   0.000000000   0.000000000  -0.333333333

     Diagonalizing the dynamical matrix

     q = (    0.000000000   0.333333333   0.000000000 ) 

 **************************************************************************
     freq (    1) =       2.948495 [THz] =      98.351218 [cm-1]
     freq (    2) =       2.948495 [THz] =      98.351218 [cm-1]
     freq (    3) =       4.953354 [THz] =     165.226100 [cm-1]
     freq (    4) =      14.670286 [THz] =     489.348065 [cm-1]
     freq (    5) =      14.670286 [THz] =     489.348065 [cm-1]
     freq (    6) =      15.142898 [THz] =     505.112718 [cm-1]
 **************************************************************************

     Mode symmetry, C_4v (4mm)  point group:

     freq (   1-   2) =         98.4  [cm-1]   --> E    G_5 D_5       
     freq (   3-   3) =        165.2  [cm-1]   --> A_1  G_1 D_1       
     freq (   4-   5) =        489.3  [cm-1]   --> E    G_5 D_5       
     freq (   6-   6) =        505.1  [cm-1]   --> B_2  G_4 D_2'      

     Calculation of q =   -0.1666667   0.5000000  -0.1666667
 
     Parallelization info
     --------------------
     sticks:   dense  smooth     PW     G-vecs:    dense   smooth      PW
     Min          55      55     17                 1158     1158     211
     Max          56      56     18                 1161     1161     216
     Sum        1003    1003    313                20875    20875    3839
 
     Using Slab Decomposition
 

     Title: 
     default                                                                    


     bravais-lattice index     =            2
     lattice parameter (alat)  =      10.1899  a.u.
     unit-cell volume          =     264.5151 (a.u.)^3
     number of atoms/cell      =            2
     number of atomic types    =            1
     number of electrons       =         8.00
     number of Kohn-Sham states=            4
     kinetic-energy cutoff     =      70.0000  Ry
     charge density cutoff     =     280.0000  Ry
     Exchange-correlation= PW
                           (   1   4   0   0   0   0   0)

     celldm(1)=  10.189905  celldm(2)=   0.000000  celldm(3)=   0.000000
     celldm(4)=   0.000000  celldm(5)=   0.000000  celldm(6)=   0.000000

     crystal axes: (cart. coord. in units of alat)
               a(1) = (  -0.500000   0.000000   0.500000 )  
               a(2) = (   0.000000   0.500000   0.500000 )  
               a(3) = (  -0.500000   0.500000   0.000000 )  

     reciprocal axes: (cart. coord. in units 2 pi/alat)
               b(1) = ( -1.000000 -1.000000  1.000000 )  
               b(2) = (  1.000000  1.000000  1.000000 )  
               b(3) = ( -1.000000  1.000000 -1.000000 )  


     PseudoPot. # 1 for Si read from file:
     ./pseudos/Si.nc.UPF
     MD5 check sum: 9e2d726316af3d4752eea8ab0afbb951
     Pseudo is Norm-conserving + core correction, Zval =  4.0
     Generated using ONCVPSP code by D. R. Hamann
     Using radial grid of 1510 points,  6 beta functions with: 
                l(1) =   0
                l(2) =   0
                l(3) =   1
                l(4) =   1
                l(5) =   2
                l(6) =   2

     atomic species   valence    mass     pseudopotential
        Si             4.00    28.08550     Si( 1.00)

     48 Sym. Ops., with inversion, found



   Cartesian axes

     site n.     atom                  positions (alat units)
         1           Si  tau(   1) = (   0.0000000   0.0000000   0.0000000  )
         2           Si  tau(   2) = (  -0.2500000   0.2500000   0.2500000  )

     number of k points=   936

     Number of k-points >= 100: set verbosity='high' to print them.

     Dense  grid:    20875 G-vectors     FFT dimensions: (  40,  40,  40)

     Estimated max dynamical RAM per process >       2.02 MB

     Estimated total dynamical RAM >     109.09 MB

     The potential is recalculated from file :
     /fastscratch/tsievers/QE_TMP_DIR/_ph0/si_ph_bench_poolsize_18_n_procs_54_3.save/charge-density

     Starting wfcs are    8 atomic wfcs

     Band Structure Calculation
     Davidson diagonalization with overlap

     ethr =  1.25E-10,  avg # of iterations = 12.8

     total cpu time spent up to now is       12.3 secs

     End of band structure calculation

     Number of k-points >= 100: set verbosity='high' to print the bands.

     highest occupied level (ev):     6.1106

     Writing config to output data dir /fastscratch/tsievers/QE_TMP_DIR/_ph0/si_ph_bench_poolsize_18_n_procs_54_3.save/

     default                                                                    

     bravais-lattice index     =            2
     lattice parameter (alat)  =      10.1899  a.u.
     unit-cell volume          =     264.5151 (a.u.)^3
     number of atoms/cell      =            2
     number of atomic types    =            1
     kinetic-energy cut-off    =      70.0000  Ry
     charge density cut-off    =     280.0000  Ry
     convergence threshold     =      1.0E-15
     beta                      =       0.7000
     number of iterations used =            4
     Exchange-correlation= PW
                           (   1   4   0   0   0   0   0)


     celldm(1)=   10.18990  celldm(2)=    0.00000  celldm(3)=    0.00000
[...]
      thresh= 1.000E-02 alpha_mix =  0.700 |ddv_scf|^2 =  2.953E-06

      iter #   2 total cpu time :  1445.9 secs   av.it.:  11.1
      thresh= 1.719E-04 alpha_mix =  0.700 |ddv_scf|^2 =  3.745E-06

      iter #   3 total cpu time :  1448.4 secs   av.it.:  10.2
      thresh= 1.935E-04 alpha_mix =  0.700 |ddv_scf|^2 =  4.286E-08

      iter #   4 total cpu time :  1451.2 secs   av.it.:  10.4
      thresh= 2.070E-05 alpha_mix =  0.700 |ddv_scf|^2 =  2.155E-10

      iter #   5 total cpu time :  1453.3 secs   av.it.:  10.8
      thresh= 1.468E-06 alpha_mix =  0.700 |ddv_scf|^2 =  5.466E-12

      iter #   6 total cpu time :  1455.4 secs   av.it.:  10.9
      thresh= 2.338E-07 alpha_mix =  0.700 |ddv_scf|^2 =  3.210E-14

      iter #   7 total cpu time :  1457.3 secs   av.it.:  10.7
      thresh= 1.792E-08 alpha_mix =  0.700 |ddv_scf|^2 =  3.574E-15

      iter #   8 total cpu time :  1459.1 secs   av.it.:  10.8
      thresh= 5.978E-09 alpha_mix =  0.700 |ddv_scf|^2 =  1.307E-16

     End of self-consistent calculation

     Convergence has been achieved 


     Representation #   6 mode #   6

     Self-consistent Calculation

      iter #   1 total cpu time :  1460.5 secs   av.it.:   6.3
      thresh= 1.000E-02 alpha_mix =  0.700 |ddv_scf|^2 =  1.388E-06

      iter #   2 total cpu time :  1462.4 secs   av.it.:  11.0
      thresh= 1.178E-04 alpha_mix =  0.700 |ddv_scf|^2 =  1.522E-06

      iter #   3 total cpu time :  1464.2 secs   av.it.:  10.2
      thresh= 1.234E-04 alpha_mix =  0.700 |ddv_scf|^2 =  3.726E-08

      iter #   4 total cpu time :  1467.5 secs   av.it.:  10.3
      thresh= 1.930E-05 alpha_mix =  0.700 |ddv_scf|^2 =  1.216E-10

      iter #   5 total cpu time :  1469.4 secs   av.it.:  10.7
      thresh= 1.103E-06 alpha_mix =  0.700 |ddv_scf|^2 =  2.291E-12

      iter #   6 total cpu time :  1471.4 secs   av.it.:  10.8
      thresh= 1.514E-07 alpha_mix =  0.700 |ddv_scf|^2 =  1.069E-14

      iter #   7 total cpu time :  1473.6 secs   av.it.:  10.8
      thresh= 1.034E-08 alpha_mix =  0.700 |ddv_scf|^2 =  6.107E-16

     End of self-consistent calculation

     Convergence has been achieved 
 
     Number of q in the star =   24
     List of q in the star:
          1   0.500000000  -0.166666667   0.833333333
          2   0.833333333   0.166666667   0.500000000
          3   0.500000000   0.166666667   0.833333333
          4  -0.833333333  -0.166666667   0.500000000
          5  -0.833333333  -0.166666667  -0.500000000
          6  -0.500000000  -0.166666667  -0.833333333
          7   0.833333333  -0.166666667   0.500000000
          8  -0.500000000  -0.166666667   0.833333333
          9  -0.833333333   0.166666667   0.500000000
         10   0.833333333   0.166666667  -0.500000000
         11   0.833333333  -0.166666667  -0.500000000
         12   0.500000000   0.166666667  -0.833333333
         13  -0.500000000   0.166666667   0.833333333
         14  -0.500000000   0.166666667  -0.833333333
         15  -0.833333333   0.166666667  -0.500000000
         16   0.833333333  -0.500000000   0.166666667
         17   0.833333333   0.500000000  -0.166666667
         18  -0.833333333  -0.500000000  -0.166666667
         19  -0.833333333   0.500000000   0.166666667
         20   0.166666667  -0.500000000   0.833333333
         21  -0.166666667   0.500000000   0.833333333
         22   0.166666667   0.500000000  -0.833333333
         23  -0.166666667  -0.500000000  -0.833333333
         24  -0.500000000   0.833333333   0.166666667

     Diagonalizing the dynamical matrix

     q = (    0.500000000  -0.166666667   0.833333333 ) 

 **************************************************************************
     freq (    1) =       5.052036 [THz] =     168.517769 [cm-1]
     freq (    2) =       6.066506 [THz] =     202.356870 [cm-1]
     freq (    3) =       9.812725 [THz] =     327.317275 [cm-1]
     freq (    4) =      11.453331 [THz] =     382.041991 [cm-1]
     freq (    5) =      14.042018 [THz] =     468.391298 [cm-1]
     freq (    6) =      14.270728 [THz] =     476.020255 [cm-1]
 **************************************************************************

     Calculation of q =   -0.3333333  -1.0000000   0.0000000
 
     Parallelization info
     --------------------
     sticks:   dense  smooth     PW     G-vecs:    dense   smooth      PW
     Min          55      55     19                 1158     1158     236
     Max          56      56     20                 1161     1161     239
     Sum        1003    1003    349                20875    20875    4279
 
     Using Slab Decomposition
 

     Title: 
     default                                                                    


     bravais-lattice index     =            2
     lattice parameter (alat)  =      10.1899  a.u.
     unit-cell volume          =     264.5151 (a.u.)^3
     number of atoms/cell      =            2
     number of atomic types    =            1
     number of electrons       =         8.00
     number of Kohn-Sham states=            4
     kinetic-energy cutoff     =      70.0000  Ry
     charge density cutoff     =     280.0000  Ry
     Exchange-correlation= PW
                           (   1   4   0   0   0   0   0)

     celldm(1)=  10.189905  celldm(2)=   0.000000  celldm(3)=   0.000000
     celldm(4)=   0.000000  celldm(5)=   0.000000  celldm(6)=   0.000000

     crystal axes: (cart. coord. in units of alat)
               a(1) = (  -0.500000   0.000000   0.500000 )  
               a(2) = (   0.000000   0.500000   0.500000 )  
               a(3) = (  -0.500000   0.500000   0.000000 )  

     reciprocal axes: (cart. coord. in units 2 pi/alat)
               b(1) = ( -1.000000 -1.000000  1.000000 )  
               b(2) = (  1.000000  1.000000  1.000000 )  
               b(3) = ( -1.000000  1.000000 -1.000000 )  


     PseudoPot. # 1 for Si read from file:
     ./pseudos/Si.nc.UPF
     MD5 check sum: 9e2d726316af3d4752eea8ab0afbb951
     Pseudo is Norm-conserving + core correction, Zval =  4.0
     Generated using ONCVPSP code by D. R. Hamann
     Using radial grid of 1510 points,  6 beta functions with: 
                l(1) =   0
                l(2) =   0
                l(3) =   1
                l(4) =   1
                l(5) =   2
                l(6) =   2

     atomic species   valence    mass     pseudopotential
        Si             4.00    28.08550     Si( 1.00)

     48 Sym. Ops., with inversion, found



   Cartesian axes

     site n.     atom                  positions (alat units)
         1           Si  tau(   1) = (   0.0000000   0.0000000   0.0000000  )
         2           Si  tau(   2) = (  -0.2500000   0.2500000   0.2500000  )

     number of k points=   432

     Number of k-points >= 100: set verbosity='high' to print them.

     Dense  grid:    20875 G-vectors     FFT dimensions: (  40,  40,  40)

     Estimated max dynamical RAM per process >       2.04 MB

     Estimated total dynamical RAM >     110.43 MB

     The potential is recalculated from file :
     /fastscratch/tsievers/QE_TMP_DIR/_ph0/si_ph_bench_poolsize_18_n_procs_54_3.save/charge-density

     Starting wfcs are    8 atomic wfcs

     Band Structure Calculation
     Davidson diagonalization with overlap

     ethr =  1.25E-10,  avg # of iterations = 12.8

     total cpu time spent up to now is       59.5 secs

     End of band structure calculation

     Number of k-points >= 100: set verbosity='high' to print the bands.

     highest occupied level (ev):     6.1106

     Writing config to output data dir /fastscratch/tsievers/QE_TMP_DIR/_ph0/si_ph_bench_poolsize_18_n_procs_54_3.save/

     default                                                                    

     bravais-lattice index     =            2
     lattice parameter (alat)  =      10.1899  a.u.
     unit-cell volume          =     264.5151 (a.u.)^3
     number of atoms/cell      =            2
     number of atomic types    =            1
     kinetic-energy cut-off    =      70.0000  Ry
     charge density cut-off    =     280.0000  Ry
     convergence threshold     =      1.0E-15
     beta                      =       0.7000
     number of iterations used =            4
     Exchange-correlation= PW
                           (   1   4   0   0   0   0   0)


     celldm(1)=   10.18990  celldm(2)=    0.00000  celldm(3)=    0.00000
     celldm(4)=    0.00000  celldm(5)=    0.00000  celldm(6)=    0.00000

     crystal axes: (cart. coord. in units of alat)
               a(1) = ( -0.5000  0.0000  0.5000 )  
               a(2) = (  0.0000  0.5000  0.5000 )  
               a(3) = ( -0.5000  0.5000  0.0000 )  

     reciprocal axes: (cart. coord. in units 2 pi/alat)
               b(1) = ( -1.0000 -1.0000  1.0000 )  
               b(2) = (  1.0000  1.0000  1.0000 )  
               b(3) = ( -1.0000  1.0000 -1.0000 )  


     Atoms inside the unit cell: 

     Cartesian axes

     site n.  atom      mass           positions (alat units)
        1     Si  28.0855   tau(    1) = (    0.00000    0.00000    0.00000  )
        2     Si  28.0855   tau(    2) = (   -0.25000    0.25000    0.25000  )

     Computing dynamical matrix for 
                    q = (  -0.3333333  -1.0000000   0.0000000 )
 
      4 Sym.Ops. (no q -> -q+G )


     G cutoff =  736.4420  (   1161 G-vectors)     FFT grid: ( 40, 40, 40)
     number of k points=   432

     PseudoPot. # 1 for Si read from file:
     ./pseudos/Si.nc.UPF
     MD5 check sum: 9e2d726316af3d4752eea8ab0afbb951
     Pseudo is Norm-conserving + core correction, Zval =  4.0
     Generated using ONCVPSP code by D. R. Hamann
     Using radial grid of 1510 points,  6 beta functions with: 
                l(1) =   0
                l(2) =   0
                l(3) =   1
                l(4) =   1
                l(5) =   2
                l(6) =   2


     Atomic displacements:
     There are    3 irreducible representations

     Representation     1      2 modes -  To be done

     Representation     2      2 modes -  To be done

     Representation     3      2 modes -  To be done



     Alpha used in Ewald sum =   2.8000
     PHONON       :  17m46.58s CPU  24m38.15s WALL



     Representation #   1 modes #   1   2

     Self-consistent Calculation

      iter #   1 total cpu time :  1479.5 secs   av.it.:   6.2
      thresh= 1.000E-02 alpha_mix =  0.700 |ddv_scf|^2 =  2.767E-07

      iter #   2 total cpu time :  1481.6 secs   av.it.:  11.7
      thresh= 5.260E-05 alpha_mix =  0.700 |ddv_scf|^2 =  3.085E-07

      iter #   3 total cpu time :  1483.9 secs   av.it.:  11.1
      thresh= 5.554E-05 alpha_mix =  0.700 |ddv_scf|^2 =  2.513E-09

      iter #   4 total cpu time :  1485.9 secs   av.it.:  11.2
      thresh= 5.013E-06 alpha_mix =  0.700 |ddv_scf|^2 =  5.098E-11

      iter #   5 total cpu time :  1488.1 secs   av.it.:  11.4
      thresh= 7.140E-07 alpha_mix =  0.700 |ddv_scf|^2 =  5.888E-13

      iter #   6 total cpu time :  1490.4 secs   av.it.:  11.6
      thresh= 7.674E-08 alpha_mix =  0.700 |ddv_scf|^2 =  1.179E-14

      iter #   7 total cpu time :  1492.3 secs   av.it.:  11.5
      thresh= 1.086E-08 alpha_mix =  0.700 |ddv_scf|^2 =  6.132E-16

     End of self-consistent calculation

     Convergence has been achieved 


     Representation #   2 modes #   3   4

     Self-consistent Calculation

      iter #   1 total cpu time :  1493.8 secs   av.it.:   6.4
      thresh= 1.000E-02 alpha_mix =  0.700 |ddv_scf|^2 =  5.016E-07

      iter #   2 total cpu time :  1496.1 secs   av.it.:  11.8
      thresh= 7.083E-05 alpha_mix =  0.700 |ddv_scf|^2 =  5.625E-07

      iter #   3 total cpu time :  1498.1 secs   av.it.:  11.1
      thresh= 7.500E-05 alpha_mix =  0.700 |ddv_scf|^2 =  4.861E-09

      iter #   4 total cpu time :  1500.1 secs   av.it.:  11.2
      thresh= 6.972E-06 alpha_mix =  0.700 |ddv_scf|^2 =  5.071E-11

      iter #   5 total cpu time :  1502.1 secs   av.it.:  11.4
      thresh= 7.121E-07 alpha_mix =  0.700 |ddv_scf|^2 =  1.155E-12

      iter #   6 total cpu time :  1504.2 secs   av.it.:  11.6
      thresh= 1.075E-07 alpha_mix =  0.700 |ddv_scf|^2 =  9.172E-15

      iter #   7 total cpu time :  1506.2 secs   av.it.:  11.5
      thresh= 9.577E-09 alpha_mix =  0.700 |ddv_scf|^2 =  5.762E-16

     End of self-consistent calculation

     Convergence has been achieved 


     Representation #   3 modes #   5   6

     Self-consistent Calculation

      iter #   1 total cpu time :  1508.7 secs   av.it.:   6.5
      thresh= 1.000E-02 alpha_mix =  0.700 |ddv_scf|^2 =  6.644E-07

      iter #   2 total cpu time :  1510.7 secs   av.it.:  11.6
      thresh= 8.151E-05 alpha_mix =  0.700 |ddv_scf|^2 =  7.292E-07

      iter #   3 total cpu time :  1514.6 secs   av.it.:  11.0
      thresh= 8.540E-05 alpha_mix =  0.700 |ddv_scf|^2 =  5.884E-09

      iter #   4 total cpu time :  1516.6 secs   av.it.:  11.1
      thresh= 7.671E-06 alpha_mix =  0.700 |ddv_scf|^2 =  3.996E-11

      iter #   5 total cpu time :  1518.9 secs   av.it.:  11.4
      thresh= 6.321E-07 alpha_mix =  0.700 |ddv_scf|^2 =  3.794E-13

      iter #   6 total cpu time :  1521.0 secs   av.it.:  11.5
      thresh= 6.160E-08 alpha_mix =  0.700 |ddv_scf|^2 =  6.657E-15

      iter #   7 total cpu time :  1522.9 secs   av.it.:  11.4
      thresh= 8.159E-09 alpha_mix =  0.700 |ddv_scf|^2 =  4.002E-16

     End of self-consistent calculation

     Convergence has been achieved 
 
     Number of q in the star =   12
     List of q in the star:
          1  -0.333333333  -1.000000000   0.000000000
          2   0.000000000  -1.000000000  -0.333333333
          3   0.000000000  -1.000000000   0.333333333
          4   0.333333333  -1.000000000   0.000000000
          5  -1.000000000   0.000000000  -0.333333333
          6   1.000000000   0.000000000   0.333333333
          7   0.000000000   0.333333333   1.000000000
          8   0.000000000  -0.333333333  -1.000000000
          9  -1.000000000  -0.333333333   0.000000000
         10   1.000000000   0.333333333   0.000000000
         11  -0.333333333   0.000000000   1.000000000
         12   0.333333333   0.000000000   1.000000000

     Diagonalizing the dynamical matrix

     q = (   -0.333333333  -1.000000000   0.000000000 ) 

 **************************************************************************
     freq (    1) =       5.494079 [THz] =     183.262735 [cm-1]
     freq (    2) =       5.494079 [THz] =     183.262735 [cm-1]
     freq (    3) =      10.966367 [THz] =     365.798638 [cm-1]
     freq (    4) =      10.966367 [THz] =     365.798638 [cm-1]
     freq (    5) =      14.002445 [THz] =     467.071292 [cm-1]
     freq (    6) =      14.002445 [THz] =     467.071292 [cm-1]
 **************************************************************************
 
     init_run     :      0.24s CPU      0.42s WALL (      15 calls)
     electrons    :     39.64s CPU     41.30s WALL (      15 calls)

     Called by init_run:
     wfcinit      :      0.00s CPU      0.04s WALL (      15 calls)
     potinit      :      0.02s CPU      0.12s WALL (      15 calls)
     hinit0       :      0.11s CPU      0.12s WALL (      15 calls)

     Called by electrons:
     c_bands      :     39.64s CPU     41.30s WALL (      15 calls)
     v_of_rho     :      0.01s CPU      0.01s WALL (      16 calls)

     Called by c_bands:
     init_us_2    :      4.47s CPU      4.74s WALL (   83331 calls)
     init_us_2:cp :      4.27s CPU      4.55s WALL (   83331 calls)
     cegterg      :     27.54s CPU     28.74s WALL (    2796 calls)

     Called by *egterg:
     cdiaghg      :      2.48s CPU      2.61s WALL (   39873 calls)
     h_psi        :    471.97s CPU    497.51s WALL (  848178 calls)
     g_psi        :      0.18s CPU      0.19s WALL (   37077 calls)

     Called by h_psi:
     h_psi:calbec :     36.09s CPU     38.06s WALL (  848178 calls)
     vloc_psi     :    409.77s CPU    431.99s WALL (  848178 calls)
     add_vuspsi   :     18.78s CPU     20.07s WALL (  848178 calls)

     General routines
     calbec       :     55.16s CPU     58.75s WALL ( 1701589 calls)
     fft          :      0.66s CPU      0.67s WALL (    3717 calls)
     ffts         :      2.81s CPU      2.87s WALL (    8964 calls)
     fftw         :    457.09s CPU    482.08s WALL ( 7120430 calls)
     davcio       :      3.31s CPU     22.49s WALL (  354624 calls)
 
     Parallel routines
 
     PHONON       :  18m25.91s CPU  25m24.31s WALL

     INITIALIZATION: 
     phq_setup    :      0.03s CPU      0.53s WALL (      16 calls)
     phq_init     :      2.38s CPU      3.09s WALL (      16 calls)
 
     phq_init     :      2.38s CPU      3.09s WALL (      16 calls)
     set_drhoc    :      0.51s CPU      0.52s WALL (      48 calls)
     init_vloc    :      0.03s CPU      0.03s WALL (      16 calls)
     init_us_1    :      0.03s CPU      0.03s WALL (      16 calls)
     init_us_2    :      4.47s CPU      4.74s WALL (   83331 calls)
 
     DYNAMICAL MATRIX:
     dynmat0      :      1.72s CPU      2.40s WALL (      16 calls)
     phqscf       :   1044.15s CPU   1405.90s WALL (      16 calls)
     dynmatrix    :      0.62s CPU      0.71s WALL (      16 calls)
 
     phqscf       :   1044.15s CPU   1405.90s WALL (      16 calls)
     solve_linter :   1041.76s CPU   1395.32s WALL (      76 calls)
     drhodv       :      2.32s CPU      2.47s WALL (      76 calls)
 
     dynmat0      :      1.72s CPU      2.40s WALL (      16 calls)
     dynmat_us    :      1.03s CPU      1.07s WALL (      16 calls)
     d2ionq       :      0.00s CPU      0.01s WALL (      16 calls)
     dynmatcc     :      0.35s CPU      0.35s WALL (      16 calls)
 
     dynmat_us    :      1.03s CPU      1.07s WALL (      16 calls)
 
     phqscf       :   1044.15s CPU   1405.90s WALL (      16 calls)
     solve_linter :   1041.76s CPU   1395.32s WALL (      76 calls)
 
     solve_linter :   1041.76s CPU   1395.32s WALL (      76 calls)
     dvqpsi_us    :      8.96s CPU      9.35s WALL (    8508 calls)
     sth_kernel   :    780.70s CPU    831.73s WALL (     584 calls)
     apply_dpot_b :     35.56s CPU     37.64s WALL (   58843 calls)
     ortho        :      2.23s CPU      2.38s WALL (   67351 calls)
     cgsolve      :    505.86s CPU    533.63s WALL (   67351 calls)
     incdrhoscf   :     48.89s CPU     51.14s WALL (   67321 calls)
     dv_of_drho   :      0.25s CPU      0.25s WALL (     711 calls)
     mix_pot      :      2.63s CPU    182.59s WALL (     584 calls)
     psymdvscf    :      8.58s CPU      8.63s WALL (     579 calls)
 
     dvqpsi_us    :      8.96s CPU      9.35s WALL (    8508 calls)
     dvqpsi_us_on :      1.24s CPU      1.31s WALL (    8508 calls)
 
     cgsolve      :    505.86s CPU    533.63s WALL (   67351 calls)
     ch_psi       :    493.36s CPU    520.19s WALL (  805509 calls)
 
     ch_psi       :    493.36s CPU    520.19s WALL (  805509 calls)
     h_psi        :    471.97s CPU    497.51s WALL (  848178 calls)
     last         :     38.66s CPU     40.84s WALL (  805509 calls)
 
     h_psi        :    471.97s CPU    497.51s WALL (  848178 calls)
     add_vuspsi   :     18.78s CPU     20.07s WALL (  848178 calls)
 
     incdrhoscf   :     48.89s CPU     51.14s WALL (   67321 calls)
 
 
      General routines
     calbec       :     55.16s CPU     58.75s WALL ( 1701589 calls)
     fft          :      0.66s CPU      0.67s WALL (    3717 calls)
     ffts         :      2.81s CPU      2.87s WALL (    8964 calls)
     fftw         :    457.09s CPU    482.08s WALL ( 7120430 calls)
     davcio       :      3.31s CPU     22.49s WALL (  354624 calls)
     write_rec    :      3.98s CPU    150.63s WALL (     660 calls)
 
 
     PHONON       :  18m25.91s CPU  25m24.31s WALL

 
   This run was terminated on:  11:35:56   6Jun2022            

=------------------------------------------------------------------------------=
   JOB DONE.
=------------------------------------------------------------------------------=
real 1528.78
user 24435.42
sys 707.24
