Module for intel-oneAPI 2021.4 loaded.
 
:: initializing oneAPI environment ...
   2811882: BASH_VERSION = 4.4.20(1)-release
:: advisor -- latest
:: ccl -- latest
:: clck -- latest
:: compiler -- latest
:: dal -- latest
:: debugger -- latest
:: dev-utilities -- latest
:: dnnl -- latest
:: dpcpp-ct -- latest
:: dpl -- latest
:: inspector -- latest
:: intelpython -- latest
:: ipp -- latest
:: ippcp -- latest
:: ipp -- latest
:: itac -- latest
:: LPOT -- latest
:: mkl -- latest
:: modelzoo -- latest
:: mpi -- latest
:: pytorch -- latest
:: tbb -- latest
:: tensorflow -- latest
:: vpl -- latest
:: vtune -- latest
:: oneAPI environment initialized ::
 

     Program PWSCF v.7.0 starts on  6Jun2022 at 10:19:31 

     This program is part of the open-source Quantum ESPRESSO suite
     for quantum simulation of materials; please cite
         "P. Giannozzi et al., J. Phys.:Condens. Matter 21 395502 (2009);
         "P. Giannozzi et al., J. Phys.:Condens. Matter 29 465901 (2017);
         "P. Giannozzi et al., J. Chem. Phys. 152 154105 (2020);
          URL http://www.quantum-espresso.org", 
     in publications or presentations arising from this work. More details at
     http://www.quantum-espresso.org/quote

     Parallel version (MPI), running on    72 processors

     MPI processes distributed on     4 nodes
     K-points division:     npool     =       4
     R & G space division:  proc/nbgrp/npool/nimage =      18
     59400 MiB available memory on the printing compute node when the environment starts
 
     Reading input from in_files/si_ph_bench_poolsize_18_n_procs_72_3.scf

     Current dimensions of program PWSCF are:
     Max number of different atomic species (ntypx) = 10
     Max number of k-points (npk) =  40000
     Max angular momentum in pseudopotentials (lmaxx) =  4

     Subspace diagonalization in iterative solution of the eigenvalue problem:
     a serial algorithm will be used

 
     Parallelization info
     --------------------
     sticks:   dense  smooth     PW     G-vecs:    dense   smooth      PW
     Min          55      55     16                 1158     1158     191
     Max          56      56     17                 1161     1161     195
     Sum        1003    1003    301                20875    20875    3479
 
     Using Slab Decomposition
 


     bravais-lattice index     =            2
     lattice parameter (alat)  =      10.1899  a.u.
     unit-cell volume          =     264.5151 (a.u.)^3
     number of atoms/cell      =            2
     number of atomic types    =            1
     number of electrons       =         8.00
     number of Kohn-Sham states=            4
     kinetic-energy cutoff     =      70.0000  Ry
     charge density cutoff     =     280.0000  Ry
     scf convergence threshold =      1.0E-10
     mixing beta               =       0.7000
     number of iterations used =            8  plain     mixing
     Exchange-correlation= SLA  PW   NOGX NOGC
                           (   1   4   0   0   0   0   0)

     celldm(1)=  10.189905  celldm(2)=   0.000000  celldm(3)=   0.000000
     celldm(4)=   0.000000  celldm(5)=   0.000000  celldm(6)=   0.000000

     crystal axes: (cart. coord. in units of alat)
               a(1) = (  -0.500000   0.000000   0.500000 )  
               a(2) = (   0.000000   0.500000   0.500000 )  
               a(3) = (  -0.500000   0.500000   0.000000 )  

     reciprocal axes: (cart. coord. in units 2 pi/alat)
               b(1) = ( -1.000000 -1.000000  1.000000 )  
               b(2) = (  1.000000  1.000000  1.000000 )  
               b(3) = ( -1.000000  1.000000 -1.000000 )  


     PseudoPot. # 1 for Si read from file:
     ./pseudos/Si.nc.UPF
     MD5 check sum: 9e2d726316af3d4752eea8ab0afbb951
     Pseudo is Norm-conserving + core correction, Zval =  4.0
     Generated using ONCVPSP code by D. R. Hamann
     Using radial grid of 1510 points,  6 beta functions with: 
                l(1) =   0
                l(2) =   0
                l(3) =   1
                l(4) =   1
                l(5) =   2
                l(6) =   2

     atomic species   valence    mass     pseudopotential
        Si             4.00    28.08550     Si( 1.00)

     48 Sym. Ops., with inversion, found (24 have fractional translation)



   Cartesian axes

     site n.     atom                  positions (alat units)
         1           Si  tau(   1) = (   0.0000000   0.0000000   0.0000000  )
         2           Si  tau(   2) = (  -0.2500000   0.2500000   0.2500000  )

     number of k points=    28
                       cart. coord. in units 2pi/alat
        k(    1) = (  -0.0833333   0.0833333   0.0833333), wk =   0.0185185
        k(    2) = (  -0.2500000   0.2500000  -0.0833333), wk =   0.0555556
        k(    3) = (  -0.4166667   0.4166667  -0.2500000), wk =   0.0555556
        k(    4) = (   0.4166667  -0.4166667   0.5833333), wk =   0.0555556
        k(    5) = (   0.2500000  -0.2500000   0.4166667), wk =   0.0555556
        k(    6) = (   0.0833333  -0.0833333   0.2500000), wk =   0.0555556
        k(    7) = (  -0.0833333   0.4166667   0.0833333), wk =   0.0555556
        k(    8) = (  -0.2500000   0.5833333  -0.0833333), wk =   0.1111111
        k(    9) = (   0.5833333  -0.2500000   0.7500000), wk =   0.1111111
        k(   10) = (   0.4166667  -0.0833333   0.5833333), wk =   0.1111111
        k(   11) = (   0.2500000   0.0833333   0.4166667), wk =   0.1111111
        k(   12) = (  -0.0833333   0.7500000   0.0833333), wk =   0.0555556
        k(   13) = (   0.7500000  -0.0833333   0.9166667), wk =   0.1111111
        k(   14) = (   0.5833333   0.0833333   0.7500000), wk =   0.1111111
        k(   15) = (   0.4166667   0.2500000   0.5833333), wk =   0.1111111
        k(   16) = (  -0.0833333  -0.9166667   0.0833333), wk =   0.0555556
        k(   17) = (  -0.2500000  -0.7500000  -0.0833333), wk =   0.1111111
        k(   18) = (  -0.0833333  -0.5833333   0.0833333), wk =   0.0555556
        k(   19) = (  -0.2500000   0.2500000   0.2500000), wk =   0.0185185
        k(   20) = (  -0.4166667   0.4166667   0.0833333), wk =   0.0555556
        k(   21) = (   0.4166667  -0.4166667   0.9166667), wk =   0.0555556
        k(   22) = (   0.2500000  -0.2500000   0.7500000), wk =   0.0555556
        k(   23) = (  -0.2500000   0.5833333   0.2500000), wk =   0.0555556
        k(   24) = (   0.5833333  -0.2500000   1.0833333), wk =   0.1111111
        k(   25) = (   0.4166667  -0.0833333   0.9166667), wk =   0.1111111
        k(   26) = (  -0.2500000  -1.0833333   0.2500000), wk =   0.0555556
        k(   27) = (  -0.4166667   0.4166667   0.4166667), wk =   0.0185185
        k(   28) = (   0.4166667  -0.4166667   1.2500000), wk =   0.0555556

     Dense  grid:    20875 G-vectors     FFT dimensions: (  40,  40,  40)

     Estimated max dynamical RAM per process >       2.35 MB

     Estimated total dynamical RAM >     153.66 MB

     Initial potential from superposition of free atoms

     starting charge       7.9989, renormalised to       8.0000
     Starting wfcs are    8 randomized atomic wfcs

     total cpu time spent up to now is        0.1 secs

     Self-consistent Calculation

     iteration #  1     ecut=    70.00 Ry     beta= 0.70
     Davidson diagonalization with overlap
     ethr =  1.00E-02,  avg # of iterations =  2.0

     Threshold (ethr) on eigenvalues was too large:
     Diagonalizing with lowered threshold

     Davidson diagonalization with overlap
     ethr =  6.12E-04,  avg # of iterations =  2.0

     total cpu time spent up to now is        0.2 secs

     total energy              =     -17.04764143 Ry
     estimated scf accuracy    <       0.05794586 Ry

     iteration #  2     ecut=    70.00 Ry     beta= 0.70
     Davidson diagonalization with overlap
     ethr =  7.24E-04,  avg # of iterations =  1.0

     total cpu time spent up to now is        0.2 secs

     total energy              =     -17.04995977 Ry
     estimated scf accuracy    <       0.00249391 Ry

     iteration #  3     ecut=    70.00 Ry     beta= 0.70
     Davidson diagonalization with overlap
     ethr =  3.12E-05,  avg # of iterations =  3.0

     total cpu time spent up to now is        0.3 secs

     total energy              =     -17.05082705 Ry
     estimated scf accuracy    <       0.00009745 Ry

     iteration #  4     ecut=    70.00 Ry     beta= 0.70
     Davidson diagonalization with overlap
     ethr =  1.22E-06,  avg # of iterations =  4.5

     total cpu time spent up to now is        0.3 secs

     total energy              =     -17.05089798 Ry
     estimated scf accuracy    <       0.00000366 Ry

     iteration #  5     ecut=    70.00 Ry     beta= 0.70
     Davidson diagonalization with overlap
     ethr =  4.58E-08,  avg # of iterations =  4.3

     total cpu time spent up to now is        0.3 secs

     total energy              =     -17.05090098 Ry
     estimated scf accuracy    <       0.00000015 Ry

     iteration #  6     ecut=    70.00 Ry     beta= 0.70
     Davidson diagonalization with overlap
     ethr =  1.90E-09,  avg # of iterations =  3.6

     total cpu time spent up to now is        0.4 secs

     total energy              =     -17.05090106 Ry
     estimated scf accuracy    <       0.00000002 Ry

     iteration #  7     ecut=    70.00 Ry     beta= 0.70
     Davidson diagonalization with overlap
     ethr =  2.16E-10,  avg # of iterations =  3.3

     total cpu time spent up to now is        0.4 secs

     End of self-consistent calculation

          k =-0.0833 0.0833 0.0833 (  2667 PWs)   bands (ev):

    -5.7561   5.3866   6.1106   6.1106

          k =-0.2500 0.2500-0.0833 (  2621 PWs)   bands (ev):

    -5.2692   3.2787   4.8359   5.9020

          k =-0.4167 0.4167-0.2500 (  2618 PWs)   bands (ev):

    -4.1491   0.4558   4.3704   5.2525

          k = 0.4167-0.4167 0.5833 (  2604 PWs)   bands (ev):

    -3.4238  -0.7235   4.4440   4.8612

          k = 0.2500-0.2500 0.4167 (  2618 PWs)   bands (ev):

    -4.5725   1.3222   4.9163   4.9543

          k = 0.0833-0.0833 0.2500 (  2643 PWs)   bands (ev):

    -5.5104   4.3092   5.4447   5.6431

          k =-0.0833 0.4167 0.0833 (  2627 PWs)   bands (ev):

    -5.0231   3.1094   4.6844   4.6977

          k =-0.2500 0.5833-0.0833 (  2613 PWs)   bands (ev):

    -4.0918   1.2428   3.3199   4.3008

          k = 0.5833-0.2500 0.7500 (  2616 PWs)   bands (ev):

    -2.9383  -0.5645   2.7090   4.0652

          k = 0.4167-0.0833 0.5833 (  2617 PWs)   bands (ev):

    -3.6856   0.5301   2.6549   4.5685

          k = 0.2500 0.0833 0.4167 (  2624 PWs)   bands (ev):

    -4.7922   2.2460   4.0374   5.2604

          k =-0.0833 0.7500 0.0833 (  2617 PWs)   bands (ev):

    -3.3664   0.4197   3.2861   3.6484

          k = 0.7500-0.0833 0.9167 (  2608 PWs)   bands (ev):

    -2.1400  -0.9430   2.4039   3.2177

          k = 0.5833 0.0833 0.7500 (  2608 PWs)   bands (ev):

    -2.5099  -0.6178   1.9049   3.7798

          k = 0.4167 0.2500 0.5833 (  2622 PWs)   bands (ev):

    -3.5664  -0.1967   3.6417   4.6731

          k =-0.0833-0.9167 0.0833 (  2604 PWs)   bands (ev):

    -2.2384  -0.9535   3.0091   3.4291

          k =-0.2500-0.7500-0.0833 (  2615 PWs)   bands (ev):

    -3.1914   0.1893   2.7413   3.5675

          k =-0.0833-0.5833 0.0833 (  2620 PWs)   bands (ev):

    -4.3033   1.8032   3.8480   4.0788

          k =-0.2500 0.2500 0.2500 (  2632 PWs)   bands (ev):

    -5.0343   2.2731   5.4857   5.4857

          k =-0.4167 0.4167 0.0833 (  2620 PWs)   bands (ev):

    -4.3392   1.3431   3.2814   5.3165

          k = 0.4167-0.4167 0.9167 (  2613 PWs)   bands (ev):

    -3.1274  -0.1140   2.1362   4.5076

          k = 0.2500-0.2500 0.7500 (  2618 PWs)   bands (ev):

    -3.0761  -0.1941   2.6355   4.0115

          k =-0.2500 0.5833 0.2500 (  2613 PWs)   bands (ev):

    -3.9042   0.5133   3.7736   4.3933

          k = 0.5833-0.2500 1.0833 (  2619 PWs)   bands (ev):

    -2.8765  -0.2149   2.2381   3.5572

          k = 0.4167-0.0833 0.9167 (  2613 PWs)   bands (ev):

    -2.0245  -0.9506   2.0592   2.8637

          k =-0.2500-1.0833 0.2500 (  2605 PWs)   bands (ev):

    -2.2385  -0.8648   1.9290   3.8127

          k =-0.4167 0.4167 0.4167 (  2602 PWs)   bands (ev):

    -3.8074  -0.3119   5.0941   5.0941

          k = 0.4167-0.4167 1.2500 (  2605 PWs)   bands (ev):

    -3.1840  -0.6106   3.2018   4.6388

     highest occupied level (ev):     6.1106

!    total energy              =     -17.05090107 Ry
     estimated scf accuracy    <          9.6E-11 Ry

     The total energy is the sum of the following terms:
     one-electron contribution =       5.01080589 Ry
     hartree contribution      =       1.07710481 Ry
     xc contribution           =      -6.22231049 Ry
     ewald contribution        =     -16.91650128 Ry

     convergence has been achieved in   7 iterations

     Forces acting on atoms (cartesian axes, Ry/au):

     atom    1 type  1   force =     0.00000000    0.00000000    0.00000000
     atom    2 type  1   force =    -0.00000000   -0.00000000   -0.00000000

     Total force =     0.000000     Total SCF correction =     0.000000

     Writing all to output data dir /fastscratch/tsievers/QE_TMP_DIR/si_ph_bench_poolsize_18_n_procs_72_3.save/
 
     init_run     :      0.03s CPU      0.07s WALL (       1 calls)
     electrons    :      0.27s CPU      0.32s WALL (       1 calls)
     forces       :      0.01s CPU      0.01s WALL (       1 calls)

     Called by init_run:
     wfcinit      :      0.01s CPU      0.01s WALL (       1 calls)
     potinit      :      0.01s CPU      0.01s WALL (       1 calls)
     hinit0       :      0.01s CPU      0.04s WALL (       1 calls)

     Called by electrons:
     c_bands      :      0.23s CPU      0.23s WALL (       8 calls)
     sum_band     :      0.03s CPU      0.03s WALL (       8 calls)
     v_of_rho     :      0.00s CPU      0.00s WALL (       8 calls)
     mix_rho      :      0.00s CPU      0.00s WALL (       8 calls)

     Called by c_bands:
     init_us_2    :      0.01s CPU      0.01s WALL (     126 calls)
     init_us_2:cp :      0.01s CPU      0.01s WALL (     126 calls)
     cegterg      :      0.14s CPU      0.15s WALL (      56 calls)

     Called by *egterg:
     cdiaghg      :      0.01s CPU      0.01s WALL (     237 calls)
     h_psi        :      0.13s CPU      0.13s WALL (     251 calls)
     g_psi        :      0.00s CPU      0.00s WALL (     188 calls)

     Called by h_psi:
     h_psi:calbec :      0.01s CPU      0.01s WALL (     251 calls)
     vloc_psi     :      0.11s CPU      0.11s WALL (     251 calls)
     add_vuspsi   :      0.00s CPU      0.01s WALL (     251 calls)

     General routines
     calbec       :      0.01s CPU      0.01s WALL (     279 calls)
     fft          :      0.00s CPU      0.04s WALL (      28 calls)
     ffts         :      0.00s CPU      0.00s WALL (       8 calls)
     fftw         :      0.11s CPU      0.12s WALL (    1818 calls)
 
     Parallel routines
 
     PWSCF        :      0.37s CPU      1.78s WALL

 
   This run was terminated on:  10:19:33   6Jun2022            

=------------------------------------------------------------------------------=
   JOB DONE.
=------------------------------------------------------------------------------=

     Program PHONON v.7.0 starts on  6Jun2022 at 10:19:36 

     This program is part of the open-source Quantum ESPRESSO suite
     for quantum simulation of materials; please cite
         "P. Giannozzi et al., J. Phys.:Condens. Matter 21 395502 (2009);
         "P. Giannozzi et al., J. Phys.:Condens. Matter 29 465901 (2017);
         "P. Giannozzi et al., J. Chem. Phys. 152 154105 (2020);
          URL http://www.quantum-espresso.org", 
     in publications or presentations arising from this work. More details at
     http://www.quantum-espresso.org/quote

     Parallel version (MPI), running on    72 processors

     MPI processes distributed on     4 nodes
     K-points division:     npool     =       4
     R & G space division:  proc/nbgrp/npool/nimage =      18
     59405 MiB available memory on the printing compute node when the environment starts
 
     Reading input from in_files/si_ph_bench_poolsize_18_n_procs_72_3.ph
      Title line not specified: using 'default'.

     Reading xml data from directory:

     /fastscratch/tsievers/QE_TMP_DIR/si_ph_bench_poolsize_18_n_procs_72_3.save/

     IMPORTANT: XC functional enforced from input :
     Exchange-correlation= PW
                           (   1   4   0   0   0   0   0)
     Any further DFT definition will be discarded
     Please, verify this is what you really want

 
     Parallelization info
     --------------------
     sticks:   dense  smooth     PW     G-vecs:    dense   smooth      PW
     Min          55      55     16                 1158     1158     191
     Max          56      56     17                 1161     1161     195
     Sum        1003    1003    301                20875    20875    3479
 
     Using Slab Decomposition
 
     Reading collected, re-writing distributed wavefunctions


     Dynamical matrices for ( 6, 6, 6)  uniform grid of q-points
     (  16 q-points):
       N         xq(1)         xq(2)         xq(3) 
       1   0.000000000   0.000000000   0.000000000
       2  -0.166666667   0.166666667  -0.166666667
       3  -0.333333333   0.333333333  -0.333333333
       4   0.500000000  -0.500000000   0.500000000
       5   0.000000000   0.333333333   0.000000000
       6  -0.166666667   0.500000000  -0.166666667
       7   0.666666667  -0.333333333   0.666666667
       8   0.500000000  -0.166666667   0.500000000
       9   0.333333333   0.000000000   0.333333333
      10   0.000000000   0.666666667   0.000000000
      11   0.833333333  -0.166666667   0.833333333
      12   0.666666667  -0.000000000   0.666666667
      13   0.000000000  -1.000000000   0.000000000
      14   0.666666667  -0.333333333   1.000000000
      15   0.500000000  -0.166666667   0.833333333
      16  -0.333333333  -1.000000000   0.000000000

     Calculation of q =    0.0000000   0.0000000   0.0000000

     default                                                                    

     bravais-lattice index     =            2
     lattice parameter (alat)  =      10.1899  a.u.
     unit-cell volume          =     264.5151 (a.u.)^3
     number of atoms/cell      =            2
     number of atomic types    =            1
     kinetic-energy cut-off    =      70.0000  Ry
     charge density cut-off    =     280.0000  Ry
     convergence threshold     =      1.0E-15
     beta                      =       0.7000
     number of iterations used =            4
     Exchange-correlation= PW
                           (   1   4   0   0   0   0   0)


     celldm(1)=   10.18990  celldm(2)=    0.00000  celldm(3)=    0.00000
     celldm(4)=    0.00000  celldm(5)=    0.00000  celldm(6)=    0.00000

     crystal axes: (cart. coord. in units of alat)
               a(1) = ( -0.5000  0.0000  0.5000 )  
               a(2) = (  0.0000  0.5000  0.5000 )  
               a(3) = ( -0.5000  0.5000  0.0000 )  

     reciprocal axes: (cart. coord. in units 2 pi/alat)
               b(1) = ( -1.0000 -1.0000  1.0000 )  
               b(2) = (  1.0000  1.0000  1.0000 )  
               b(3) = ( -1.0000  1.0000 -1.0000 )  


     Atoms inside the unit cell: 

     Cartesian axes

     site n.  atom      mass           positions (alat units)
        1     Si  28.0855   tau(    1) = (    0.00000    0.00000    0.00000  )
        2     Si  28.0855   tau(    2) = (   -0.25000    0.25000    0.25000  )

     Computing dynamical matrix for 
                    q = (   0.0000000   0.0000000   0.0000000 )
 
     49 Sym.Ops. (with q -> -q+G )


     G cutoff =  736.4420  (   1161 G-vectors)     FFT grid: ( 40, 40, 40)
     number of k points=    28

     PseudoPot. # 1 for Si read from file:
     ./pseudos/Si.nc.UPF
     MD5 check sum: 9e2d726316af3d4752eea8ab0afbb951
     Pseudo is Norm-conserving + core correction, Zval =  4.0
     Generated using ONCVPSP code by D. R. Hamann
     Using radial grid of 1510 points,  6 beta functions with: 
                l(1) =   0
                l(2) =   0
                l(3) =   1
                l(4) =   1
                l(5) =   2
                l(6) =   2

     Mode symmetry, O_h (m-3m)  point group:


     Electric field:
     Dielectric constant
     Born effective charges in two ways 


     Atomic displacements:
     There are    2 irreducible representations

     Representation     1      3 modes -  To be done

     Representation     2      3 modes -  To be done



     Alpha used in Ewald sum =   2.8000
     PHONON       :      1.04s CPU      1.28s WALL


     Electric Fields Calculation

      iter #   1 total cpu time :     2.1 secs   av.it.:   6.5
      thresh= 1.000E-02 alpha_mix =  0.700 |ddv_scf|^2 =  6.313E-08

      iter #   2 total cpu time :     3.1 secs   av.it.:  12.0
      thresh= 2.513E-05 alpha_mix =  0.700 |ddv_scf|^2 =  2.706E-09

      iter #   3 total cpu time :     4.6 secs   av.it.:  11.8
      thresh= 5.202E-06 alpha_mix =  0.700 |ddv_scf|^2 =  3.050E-11

      iter #   4 total cpu time :     7.5 secs   av.it.:  12.2
      thresh= 5.522E-07 alpha_mix =  0.700 |ddv_scf|^2 =  1.809E-13

      iter #   5 total cpu time :     8.2 secs   av.it.:  11.2
      thresh= 4.253E-08 alpha_mix =  0.700 |ddv_scf|^2 =  6.643E-17

     End of electric fields calculation

          Dielectric constant in cartesian axis 

          (      13.312176268       0.000000000       0.000000000 )
          (       0.000000000      13.312176268      -0.000000000 )
          (       0.000000000      -0.000000000      13.312176268 )

          Effective charges (d Force / dE) in cartesian axis without acoustic sum rule applied (asr)

           atom      1   Si Mean Z*:       -0.00678
      Ex  (       -0.00678        0.00000       -0.00000 )
      Ey  (        0.00000       -0.00678       -0.00000 )
      Ez  (        0.00000       -0.00000       -0.00678 )
           atom      2   Si Mean Z*:       -0.00678
      Ex  (       -0.00678        0.00000        0.00000 )
      Ey  (        0.00000       -0.00678       -0.00000 )
      Ez  (        0.00000       -0.00000       -0.00678 )

          Effective charges Sum: Mean:       -0.01356
             -0.01356        0.00000        0.00000
              0.00000       -0.01356       -0.00000
              0.00000       -0.00000       -0.01356

          Effective charges (d Force / dE) in cartesian axis with asr applied: 
           atom      1   Si Mean Z*:       -0.00000
      E*x (       -0.00000       -0.00000       -0.00000 )
      E*y (       -0.00000       -0.00000        0.00000 )
      E*z (       -0.00000        0.00000       -0.00000 )
           atom      2   Si Mean Z*:        0.00000
      E*x (        0.00000        0.00000        0.00000 )
      E*y (        0.00000        0.00000        0.00000 )
      E*z (        0.00000       -0.00000        0.00000 )


     Representation #   1 modes #   1   2   3

     Self-consistent Calculation

      iter #   1 total cpu time :     9.0 secs   av.it.:   5.8
      thresh= 1.000E-02 alpha_mix =  0.700 |ddv_scf|^2 =  9.101E-09

      iter #   2 total cpu time :     9.9 secs   av.it.:  11.9
      thresh= 9.540E-06 alpha_mix =  0.700 |ddv_scf|^2 =  2.045E-10

      iter #   3 total cpu time :    10.6 secs   av.it.:  12.0
      thresh= 1.430E-06 alpha_mix =  0.700 |ddv_scf|^2 =  7.634E-12

      iter #   4 total cpu time :    11.7 secs   av.it.:  11.7
      thresh= 2.763E-07 alpha_mix =  0.700 |ddv_scf|^2 =  2.472E-14

      iter #   5 total cpu time :    12.3 secs   av.it.:  12.1
      thresh= 1.572E-08 alpha_mix =  0.700 |ddv_scf|^2 =  1.148E-16

     End of self-consistent calculation

     Convergence has been achieved 


     Representation #   2 modes #   4   5   6

     Self-consistent Calculation

      iter #   1 total cpu time :    13.5 secs   av.it.:   6.0
      thresh= 1.000E-02 alpha_mix =  0.700 |ddv_scf|^2 =  6.569E-09

      iter #   2 total cpu time :    14.2 secs   av.it.:  12.1
      thresh= 8.105E-06 alpha_mix =  0.700 |ddv_scf|^2 =  2.362E-10

      iter #   3 total cpu time :    15.2 secs   av.it.:  12.0
      thresh= 1.537E-06 alpha_mix =  0.700 |ddv_scf|^2 =  1.075E-11

      iter #   4 total cpu time :    16.8 secs   av.it.:  12.0
      thresh= 3.279E-07 alpha_mix =  0.700 |ddv_scf|^2 =  1.925E-14

      iter #   5 total cpu time :    17.4 secs   av.it.:  12.2
      thresh= 1.387E-08 alpha_mix =  0.700 |ddv_scf|^2 =  5.186E-17

     End of self-consistent calculation

     Convergence has been achieved 
 
     Number of q in the star =    1
     List of q in the star:
          1   0.000000000   0.000000000   0.000000000

          Dielectric constant in cartesian axis 

          (      13.312176268       0.000000000       0.000000000 )
          (       0.000000000      13.312176268      -0.000000000 )
          (       0.000000000      -0.000000000      13.312176268 )

          Effective charges (d Force / dE) in cartesian axis without acoustic sum rule applied (asr)

           atom      1   Si Mean Z*:       -0.00678
      Ex  (       -0.00678        0.00000       -0.00000 )
      Ey  (        0.00000       -0.00678       -0.00000 )
      Ez  (        0.00000       -0.00000       -0.00678 )
           atom      2   Si Mean Z*:       -0.00678
      Ex  (       -0.00678        0.00000        0.00000 )
      Ey  (        0.00000       -0.00678       -0.00000 )
      Ez  (        0.00000       -0.00000       -0.00678 )

          Effective charges Sum: Mean:       -0.01356
             -0.01356        0.00000        0.00000
              0.00000       -0.01356       -0.00000
              0.00000       -0.00000       -0.01356

          Effective charges (d Force / dE) in cartesian axis with asr applied: 
           atom      1   Si Mean Z*:       -0.00000
      E*x (       -0.00000       -0.00000       -0.00000 )
      E*y (       -0.00000       -0.00000        0.00000 )
      E*z (       -0.00000        0.00000       -0.00000 )
           atom      2   Si Mean Z*:        0.00000
      E*x (        0.00000        0.00000        0.00000 )
      E*y (        0.00000        0.00000        0.00000 )
      E*z (        0.00000       -0.00000        0.00000 )

          Effective charges (d P / du) in cartesian axis 

           atom      1   Si 
      Px  (       -0.00685       -0.00000        0.00000 )
      Py  (       -0.00000       -0.00685       -0.00000 )
      Pz  (       -0.00000       -0.00000       -0.00685 )
           atom      2   Si 
      Px  (       -0.00685       -0.00000        0.00000 )
      Py  (       -0.00000       -0.00685       -0.00000 )
      Pz  (        0.00000       -0.00000       -0.00685 )

     Diagonalizing the dynamical matrix

     q = (    0.000000000   0.000000000   0.000000000 ) 

 **************************************************************************
     freq (    1) =      -0.118870 [THz] =      -3.965066 [cm-1]
     freq (    2) =      -0.118870 [THz] =      -3.965066 [cm-1]
     freq (    3) =      -0.118870 [THz] =      -3.965066 [cm-1]
     freq (    4) =      15.412081 [THz] =     514.091695 [cm-1]
     freq (    5) =      15.412081 [THz] =     514.091695 [cm-1]
     freq (    6) =      15.412081 [THz] =     514.091695 [cm-1]
 **************************************************************************

     Mode symmetry, O_h (m-3m)  point group:

     freq (   1-   3) =         -4.0  [cm-1]   --> T_1u G_15  G_4- I  
     freq (   4-   6) =        514.1  [cm-1]   --> T_2g G_25' G_5+ R  

     Calculation of q =   -0.1666667   0.1666667  -0.1666667

     Subspace diagonalization in iterative solution of the eigenvalue problem:
     a serial algorithm will be used

 
     Parallelization info
     --------------------
     sticks:   dense  smooth     PW     G-vecs:    dense   smooth      PW
     Min          55      55     17                 1158     1158     204
     Max          56      56     18                 1161     1161     207
     Sum        1003    1003    313                20875    20875    3695
 
     Using Slab Decomposition
 

     Title: 
     default                                                                    


     bravais-lattice index     =            2
     lattice parameter (alat)  =      10.1899  a.u.
     unit-cell volume          =     264.5151 (a.u.)^3
     number of atoms/cell      =            2
     number of atomic types    =            1
     number of electrons       =         8.00
     number of Kohn-Sham states=            4
     kinetic-energy cutoff     =      70.0000  Ry
     charge density cutoff     =     280.0000  Ry
     Exchange-correlation= PW
                           (   1   4   0   0   0   0   0)

     celldm(1)=  10.189905  celldm(2)=   0.000000  celldm(3)=   0.000000
     celldm(4)=   0.000000  celldm(5)=   0.000000  celldm(6)=   0.000000

     crystal axes: (cart. coord. in units of alat)
               a(1) = (  -0.500000   0.000000   0.500000 )  
               a(2) = (   0.000000   0.500000   0.500000 )  
               a(3) = (  -0.500000   0.500000   0.000000 )  

     reciprocal axes: (cart. coord. in units 2 pi/alat)
               b(1) = ( -1.000000 -1.000000  1.000000 )  
               b(2) = (  1.000000  1.000000  1.000000 )  
               b(3) = ( -1.000000  1.000000 -1.000000 )  


     PseudoPot. # 1 for Si read from file:
     ./pseudos/Si.nc.UPF
     MD5 check sum: 9e2d726316af3d4752eea8ab0afbb951
     Pseudo is Norm-conserving + core correction, Zval =  4.0
     Generated using ONCVPSP code by D. R. Hamann
     Using radial grid of 1510 points,  6 beta functions with: 
                l(1) =   0
                l(2) =   0
                l(3) =   1
                l(4) =   1
                l(5) =   2
                l(6) =   2

     atomic species   valence    mass     pseudopotential
        Si             4.00    28.08550     Si( 1.00)

     48 Sym. Ops., with inversion, found



   Cartesian axes

     site n.     atom                  positions (alat units)
         1           Si  tau(   1) = (   0.0000000   0.0000000   0.0000000  )
         2           Si  tau(   2) = (  -0.2500000   0.2500000   0.2500000  )

     number of k points=   364

     Number of k-points >= 100: set verbosity='high' to print them.

     Dense  grid:    20875 G-vectors     FFT dimensions: (  40,  40,  40)

     Estimated max dynamical RAM per process >       2.01 MB

     Estimated total dynamical RAM >     144.53 MB

     The potential is recalculated from file :
     /fastscratch/tsievers/QE_TMP_DIR/_ph0/si_ph_bench_poolsize_18_n_procs_72_3.save/charge-density

     Starting wfcs are    8 atomic wfcs

     Band Structure Calculation
     Davidson diagonalization with overlap

     ethr =  1.25E-10,  avg # of iterations = 12.9

     total cpu time spent up to now is        1.6 secs

     End of band structure calculation

     Number of k-points >= 100: set verbosity='high' to print the bands.

     highest occupied level (ev):     6.1106

     Writing config to output data dir /fastscratch/tsievers/QE_TMP_DIR/_ph0/si_ph_bench_poolsize_18_n_procs_72_3.save/

     default                                                                    

     bravais-lattice index     =            2
     lattice parameter (alat)  =      10.1899  a.u.
     unit-cell volume          =     264.5151 (a.u.)^3
     number of atoms/cell      =            2
     number of atomic types    =            1
     kinetic-energy cut-off    =      70.0000  Ry
     charge density cut-off    =     280.0000  Ry
     convergence threshold     =      1.0E-15
     beta                      =       0.7000
     number of iterations used =            4
     Exchange-correlation= PW
                           (   1   4   0   0   0   0   0)


     celldm(1)=   10.18990  celldm(2)=    0.00000  celldm(3)=    0.00000
     celldm(4)=    0.00000  celldm(5)=    0.00000  celldm(6)=    0.00000

     crystal axes: (cart. coord. in units of alat)
               a(1) = ( -0.5000  0.0000  0.5000 )  
               a(2) = (  0.0000  0.5000  0.5000 )  
               a(3) = ( -0.5000  0.5000  0.0000 )  

     reciprocal axes: (cart. coord. in units 2 pi/alat)
               b(1) = ( -1.0000 -1.0000  1.0000 )  
               b(2) = (  1.0000  1.0000  1.0000 )  
               b(3) = ( -1.0000  1.0000 -1.0000 )  


     Atoms inside the unit cell: 

     Cartesian axes

     site n.  atom      mass           positions (alat units)
        1     Si  28.0855   tau(    1) = (    0.00000    0.00000    0.00000  )
        2     Si  28.0855   tau(    2) = (   -0.25000    0.25000    0.25000  )

     Computing dynamical matrix for 
                    q = (  -0.1666667   0.1666667  -0.1666667 )
 
      6 Sym.Ops. (no q -> -q+G )


     G cutoff =  736.4420  (   1161 G-vectors)     FFT grid: ( 40, 40, 40)
     number of k points=   364

     PseudoPot. # 1 for Si read from file:
     ./pseudos/Si.nc.UPF
     MD5 check sum: 9e2d726316af3d4752eea8ab0afbb951
     Pseudo is Norm-conserving + core correction, Zval =  4.0
     Generated using ONCVPSP code by D. R. Hamann
     Using radial grid of 1510 points,  6 beta functions with: 
                l(1) =   0
                l(2) =   0
                l(3) =   1
                l(4) =   1
                l(5) =   2
                l(6) =   2

     Mode symmetry, C_3v (3m)   point group:


     Atomic displacements:
     There are    4 irreducible representations

     Representation     1      1 modes -  To be done

     Representation     2      1 modes -  To be done

     Representation     3      2 modes -  To be done

     Representation     4      2 modes -  To be done



     Alpha used in Ewald sum =   2.8000
     PHONON       :     15.57s CPU     30.53s WALL



     Representation #   1 mode #   1

     Self-consistent Calculation

      iter #   1 total cpu time :    31.0 secs   av.it.:   6.6
      thresh= 1.000E-02 alpha_mix =  0.700 |ddv_scf|^2 =  8.516E-04

      iter #   2 total cpu time :    31.7 secs   av.it.:   9.1
      thresh= 2.918E-03 alpha_mix =  0.700 |ddv_scf|^2 =  2.790E-02

      iter #   3 total cpu time :    32.4 secs   av.it.:   7.6
      thresh= 1.000E-02 alpha_mix =  0.700 |ddv_scf|^2 =  2.272E-07

      iter #   4 total cpu time :    37.6 secs   av.it.:   9.3
      thresh= 4.767E-05 alpha_mix =  0.700 |ddv_scf|^2 =  7.455E-09

      iter #   5 total cpu time :    39.9 secs   av.it.:   9.7
      thresh= 8.634E-06 alpha_mix =  0.700 |ddv_scf|^2 =  2.476E-10

      iter #   6 total cpu time :    42.3 secs   av.it.:   9.3
      thresh= 1.574E-06 alpha_mix =  0.700 |ddv_scf|^2 =  6.938E-10

      iter #   7 total cpu time :    42.9 secs   av.it.:   7.9
      thresh= 2.634E-06 alpha_mix =  0.700 |ddv_scf|^2 =  5.660E-11

      iter #   8 total cpu time :    43.7 secs   av.it.:   8.6
      thresh= 7.523E-07 alpha_mix =  0.700 |ddv_scf|^2 =  4.037E-13

      iter #   9 total cpu time :    46.6 secs   av.it.:   8.5
      thresh= 6.353E-08 alpha_mix =  0.700 |ddv_scf|^2 =  9.234E-15

      iter #  10 total cpu time :    47.3 secs   av.it.:   8.8
      thresh= 9.609E-09 alpha_mix =  0.700 |ddv_scf|^2 =  9.205E-16

     End of self-consistent calculation

     Convergence has been achieved 


     Representation #   2 mode #   2

     Self-consistent Calculation

      iter #   1 total cpu time :    49.6 secs   av.it.:   6.6
      thresh= 1.000E-02 alpha_mix =  0.700 |ddv_scf|^2 =  8.516E-04

      iter #   2 total cpu time :    51.7 secs   av.it.:   9.1
      thresh= 2.918E-03 alpha_mix =  0.700 |ddv_scf|^2 =  2.790E-02

      iter #   3 total cpu time :    52.6 secs   av.it.:   7.6
      thresh= 1.000E-02 alpha_mix =  0.700 |ddv_scf|^2 =  2.272E-07

      iter #   4 total cpu time :    56.6 secs   av.it.:   9.3
      thresh= 4.767E-05 alpha_mix =  0.700 |ddv_scf|^2 =  7.455E-09

      iter #   5 total cpu time :    57.2 secs   av.it.:   9.7
      thresh= 8.634E-06 alpha_mix =  0.700 |ddv_scf|^2 =  2.477E-10

      iter #   6 total cpu time :    58.1 secs   av.it.:   9.3
      thresh= 1.574E-06 alpha_mix =  0.700 |ddv_scf|^2 =  6.939E-10

      iter #   7 total cpu time :    59.8 secs   av.it.:   7.9
      thresh= 2.634E-06 alpha_mix =  0.700 |ddv_scf|^2 =  5.660E-11

      iter #   8 total cpu time :    61.0 secs   av.it.:   8.7
      thresh= 7.523E-07 alpha_mix =  0.700 |ddv_scf|^2 =  4.037E-13

      iter #   9 total cpu time :    62.3 secs   av.it.:   8.5
      thresh= 6.354E-08 alpha_mix =  0.700 |ddv_scf|^2 =  9.234E-15

      iter #  10 total cpu time :    63.8 secs   av.it.:   8.8
      thresh= 9.609E-09 alpha_mix =  0.700 |ddv_scf|^2 =  9.203E-16

     End of self-consistent calculation

     Convergence has been achieved 


     Representation #   3 modes #   3   4

     Self-consistent Calculation

      iter #   1 total cpu time :    66.3 secs   av.it.:   6.1
      thresh= 1.000E-02 alpha_mix =  0.700 |ddv_scf|^2 =  2.221E-08

      iter #   2 total cpu time :    69.5 secs   av.it.:  11.7
      thresh= 1.490E-05 alpha_mix =  0.700 |ddv_scf|^2 =  9.884E-10

      iter #   3 total cpu time :    72.2 secs   av.it.:  11.5
      thresh= 3.144E-06 alpha_mix =  0.700 |ddv_scf|^2 =  2.581E-11

      iter #   4 total cpu time :    75.2 secs   av.it.:  11.6
      thresh= 5.080E-07 alpha_mix =  0.700 |ddv_scf|^2 =  2.978E-13

      iter #   5 total cpu time :    77.1 secs   av.it.:  11.6
      thresh= 5.457E-08 alpha_mix =  0.700 |ddv_scf|^2 =  6.321E-15

      iter #   6 total cpu time :    79.4 secs   av.it.:  12.0
      thresh= 7.950E-09 alpha_mix =  0.700 |ddv_scf|^2 =  2.870E-17

     End of self-consistent calculation

     Convergence has been achieved 


     Representation #   4 modes #   5   6

     Self-consistent Calculation

      iter #   1 total cpu time :    82.8 secs   av.it.:   6.0
      thresh= 1.000E-02 alpha_mix =  0.700 |ddv_scf|^2 =  2.221E-08

      iter #   2 total cpu time :    88.4 secs   av.it.:  11.7
      thresh= 1.490E-05 alpha_mix =  0.700 |ddv_scf|^2 =  9.888E-10

      iter #   3 total cpu time :    92.0 secs   av.it.:  11.5
      thresh= 3.144E-06 alpha_mix =  0.700 |ddv_scf|^2 =  2.581E-11

      iter #   4 total cpu time :    96.0 secs   av.it.:  11.6
      thresh= 5.080E-07 alpha_mix =  0.700 |ddv_scf|^2 =  2.979E-13

      iter #   5 total cpu time :    98.2 secs   av.it.:  11.6
      thresh= 5.458E-08 alpha_mix =  0.700 |ddv_scf|^2 =  6.329E-15

      iter #   6 total cpu time :    99.7 secs   av.it.:  12.0
      thresh= 7.956E-09 alpha_mix =  0.700 |ddv_scf|^2 =  2.867E-17

     End of self-consistent calculation

     Convergence has been achieved 
 
     Number of q in the star =    8
     List of q in the star:
          1  -0.166666667   0.166666667  -0.166666667
          2   0.166666667   0.166666667   0.166666667
          3  -0.166666667  -0.166666667  -0.166666667
          4   0.166666667  -0.166666667   0.166666667
          5   0.166666667  -0.166666667  -0.166666667
          6   0.166666667   0.166666667  -0.166666667
          7  -0.166666667  -0.166666667   0.166666667
          8  -0.166666667   0.166666667   0.166666667

     Diagonalizing the dynamical matrix

     q = (   -0.166666667   0.166666667  -0.166666667 ) 

 **************************************************************************
     freq (    1) =       2.202719 [THz] =      73.474793 [cm-1]
     freq (    2) =       2.202719 [THz] =      73.474793 [cm-1]
     freq (    3) =       4.748417 [THz] =     158.390148 [cm-1]
     freq (    4) =      15.023969 [THz] =     501.145678 [cm-1]
     freq (    5) =      15.065884 [THz] =     502.543794 [cm-1]
     freq (    6) =      15.065884 [THz] =     502.543794 [cm-1]
 **************************************************************************

     Mode symmetry, C_3v (3m)   point group:

     freq (   1-   2) =         73.5  [cm-1]   --> E    L_3           
     freq (   3-   3) =        158.4  [cm-1]   --> A_1  L_1           
     freq (   4-   4) =        501.1  [cm-1]   --> A_1  L_1           
     freq (   5-   6) =        502.5  [cm-1]   --> E    L_3           

     Calculation of q =   -0.3333333   0.3333333  -0.3333333
 
     Parallelization info
     --------------------
     sticks:   dense  smooth     PW     G-vecs:    dense   smooth      PW
     Min          55      55     17                 1158     1158     211
     Max          56      56     18                 1161     1161     216
     Sum        1003    1003    313                20875    20875    3839
 
     Using Slab Decomposition
 

     Title: 
     default                                                                    


     bravais-lattice index     =            2
     lattice parameter (alat)  =      10.1899  a.u.
     unit-cell volume          =     264.5151 (a.u.)^3
     number of atoms/cell      =            2
     number of atomic types    =            1
     number of electrons       =         8.00
     number of Kohn-Sham states=            4
     kinetic-energy cutoff     =      70.0000  Ry
     charge density cutoff     =     280.0000  Ry
     Exchange-correlation= PW
                           (   1   4   0   0   0   0   0)

     celldm(1)=  10.189905  celldm(2)=   0.000000  celldm(3)=   0.000000
     celldm(4)=   0.000000  celldm(5)=   0.000000  celldm(6)=   0.000000

     crystal axes: (cart. coord. in units of alat)
               a(1) = (  -0.500000   0.000000   0.500000 )  
               a(2) = (   0.000000   0.500000   0.500000 )  
               a(3) = (  -0.500000   0.500000   0.000000 )  

     reciprocal axes: (cart. coord. in units 2 pi/alat)
               b(1) = ( -1.000000 -1.000000  1.000000 )  
               b(2) = (  1.000000  1.000000  1.000000 )  
               b(3) = ( -1.000000  1.000000 -1.000000 )  


     PseudoPot. # 1 for Si read from file:
     ./pseudos/Si.nc.UPF
     MD5 check sum: 9e2d726316af3d4752eea8ab0afbb951
     Pseudo is Norm-conserving + core correction, Zval =  4.0
     Generated using ONCVPSP code by D. R. Hamann
     Using radial grid of 1510 points,  6 beta functions with: 
                l(1) =   0
                l(2) =   0
                l(3) =   1
                l(4) =   1
                l(5) =   2
                l(6) =   2

     atomic species   valence    mass     pseudopotential
        Si             4.00    28.08550     Si( 1.00)

     48 Sym. Ops., with inversion, found



   Cartesian axes

     site n.     atom                  positions (alat units)
         1           Si  tau(   1) = (   0.0000000   0.0000000   0.0000000  )
         2           Si  tau(   2) = (  -0.2500000   0.2500000   0.2500000  )

     number of k points=   364

     Number of k-points >= 100: set verbosity='high' to print them.

     Dense  grid:    20875 G-vectors     FFT dimensions: (  40,  40,  40)

     Estimated max dynamical RAM per process >       2.02 MB

     Estimated total dynamical RAM >     145.50 MB

     The potential is recalculated from file :
     /fastscratch/tsievers/QE_TMP_DIR/_ph0/si_ph_bench_poolsize_18_n_procs_72_3.save/charge-density

     Starting wfcs are    8 atomic wfcs

     Band Structure Calculation
     Davidson diagonalization with overlap

     ethr =  1.25E-10,  avg # of iterations = 12.9

     total cpu time spent up to now is       13.7 secs

     End of band structure calculation

     Number of k-points >= 100: set verbosity='high' to print the bands.

     highest occupied level (ev):     6.1106

     Writing config to output data dir /fastscratch/tsievers/QE_TMP_DIR/_ph0/si_ph_bench_poolsize_18_n_procs_72_3.save/

     default                                                                    

     bravais-lattice index     =            2
     lattice parameter (alat)  =      10.1899  a.u.
     unit-cell volume          =     264.5151 (a.u.)^3
     number of atoms/cell      =            2
     number of atomic types    =            1
     kinetic-energy cut-off    =      70.0000  Ry
     charge density cut-off    =     280.0000  Ry
     convergence threshold     =      1.0E-15
     beta                      =       0.7000
     number of iterations used =            4
     Exchange-correlation= PW
                           (   1   4   0   0   0   0   0)


     celldm(1)=   10.18990  celldm(2)=    0.00000  celldm(3)=    0.00000
     celldm(4)=    0.00000  celldm(5)=    0.00000  celldm(6)=    0.00000

     crystal axes: (cart. coord. in units of alat)
               a(1) = ( -0.5000  0.0000  0.5000 )  
               a(2) = (  0.0000  0.5000  0.5000 )  
               a(3) = ( -0.5000  0.5000  0.0000 )  

     reciprocal axes: (cart. coord. in units 2 pi/alat)
               b(1) = ( -1.0000 -1.0000  1.0000 )  
               b(2) = (  1.0000  1.0000  1.0000 )  
               b(3) = ( -1.0000  1.0000 -1.0000 )  


     Atoms inside the unit cell: 

     Cartesian axes

     site n.  atom      mass           positions (alat units)
        1     Si  28.0855   tau(    1) = (    0.00000    0.00000    0.00000  )
        2     Si  28.0855   tau(    2) = (   -0.25000    0.25000    0.25000  )

     Computing dynamical matrix for 
                    q = (  -0.3333333   0.3333333  -0.3333333 )
 
      6 Sym.Ops. (no q -> -q+G )


     G cutoff =  736.4420  (   1161 G-vectors)     FFT grid: ( 40, 40, 40)
     number of k points=   364

     PseudoPot. # 1 for Si read from file:
     ./pseudos/Si.nc.UPF
     MD5 check sum: 9e2d726316af3d4752eea8ab0afbb951
     Pseudo is Norm-conserving + core correction, Zval =  4.0
     Generated using ONCVPSP code by D. R. Hamann
     Using radial grid of 1510 points,  6 beta functions with: 
                l(1) =   0
                l(2) =   0
                l(3) =   1
                l(4) =   1
                l(5) =   2
                l(6) =   2

     Mode symmetry, C_3v (3m)   point group:


     Atomic displacements:
     There are    4 irreducible representations

     Representation     1      1 modes -  To be done

     Representation     2      1 modes -  To be done

     Representation     3      2 modes -  To be done

     Representation     4      2 modes -  To be done



     Alpha used in Ewald sum =   2.8000
     PHONON       :   1m 2.00s CPU   1m43.69s WALL



     Representation #   1 mode #   1

     Self-consistent Calculation

      iter #   1 total cpu time :   104.2 secs   av.it.:   6.5
      thresh= 1.000E-02 alpha_mix =  0.700 |ddv_scf|^2 =  5.392E-05

      iter #   2 total cpu time :   105.0 secs   av.it.:   9.9
      thresh= 7.343E-04 alpha_mix =  0.700 |ddv_scf|^2 =  4.303E-04

      iter #   3 total cpu time :   107.0 secs   av.it.:   8.6
      thresh= 2.074E-03 alpha_mix =  0.700 |ddv_scf|^2 =  7.923E-08

      iter #   4 total cpu time :   108.8 secs   av.it.:  10.1
      thresh= 2.815E-05 alpha_mix =  0.700 |ddv_scf|^2 =  1.609E-09

      iter #   5 total cpu time :   113.7 secs   av.it.:  10.1
      thresh= 4.012E-06 alpha_mix =  0.700 |ddv_scf|^2 =  1.694E-11

      iter #   6 total cpu time :   114.4 secs   av.it.:  10.6
      thresh= 4.116E-07 alpha_mix =  0.700 |ddv_scf|^2 =  1.423E-12

      iter #   7 total cpu time :   115.2 secs   av.it.:  10.6
      thresh= 1.193E-07 alpha_mix =  0.700 |ddv_scf|^2 =  6.994E-14

      iter #   8 total cpu time :   116.1 secs   av.it.:  10.3
      thresh= 2.645E-08 alpha_mix =  0.700 |ddv_scf|^2 =  4.246E-13

      iter #   9 total cpu time :   116.9 secs   av.it.:   8.9
      thresh= 6.516E-08 alpha_mix =  0.700 |ddv_scf|^2 =  2.945E-15

      iter #  10 total cpu time :   117.5 secs   av.it.:   9.4
      thresh= 5.427E-09 alpha_mix =  0.700 |ddv_scf|^2 =  7.689E-16

     End of self-consistent calculation

     Convergence has been achieved 


     Representation #   2 mode #   2

     Self-consistent Calculation

      iter #   1 total cpu time :   118.8 secs   av.it.:   6.5
      thresh= 1.000E-02 alpha_mix =  0.700 |ddv_scf|^2 =  5.392E-05

      iter #   2 total cpu time :   121.1 secs   av.it.:   9.9
      thresh= 7.343E-04 alpha_mix =  0.700 |ddv_scf|^2 =  4.303E-04

      iter #   3 total cpu time :   121.8 secs   av.it.:   8.6
      thresh= 2.074E-03 alpha_mix =  0.700 |ddv_scf|^2 =  7.923E-08

      iter #   4 total cpu time :   125.4 secs   av.it.:  10.1
      thresh= 2.815E-05 alpha_mix =  0.700 |ddv_scf|^2 =  1.609E-09

      iter #   5 total cpu time :   126.5 secs   av.it.:  10.1
      thresh= 4.012E-06 alpha_mix =  0.700 |ddv_scf|^2 =  1.694E-11

      iter #   6 total cpu time :   128.0 secs   av.it.:  10.6
      thresh= 4.116E-07 alpha_mix =  0.700 |ddv_scf|^2 =  1.423E-12

      iter #   7 total cpu time :   128.7 secs   av.it.:  10.6
      thresh= 1.193E-07 alpha_mix =  0.700 |ddv_scf|^2 =  7.003E-14

      iter #   8 total cpu time :   130.8 secs   av.it.:  10.3
      thresh= 2.646E-08 alpha_mix =  0.700 |ddv_scf|^2 =  4.250E-13

      iter #   9 total cpu time :   131.6 secs   av.it.:   8.9
      thresh= 6.519E-08 alpha_mix =  0.700 |ddv_scf|^2 =  2.956E-15

      iter #  10 total cpu time :   132.2 secs   av.it.:   9.4
      thresh= 5.437E-09 alpha_mix =  0.700 |ddv_scf|^2 =  7.653E-16

     End of self-consistent calculation

     Convergence has been achieved 


     Representation #   3 modes #   3   4

     Self-consistent Calculation

      iter #   1 total cpu time :   133.6 secs   av.it.:   6.1
      thresh= 1.000E-02 alpha_mix =  0.700 |ddv_scf|^2 =  3.025E-08

      iter #   2 total cpu time :   135.6 secs   av.it.:  11.6
      thresh= 1.739E-05 alpha_mix =  0.700 |ddv_scf|^2 =  2.096E-09

      iter #   3 total cpu time :   137.3 secs   av.it.:  11.4
      thresh= 4.578E-06 alpha_mix =  0.700 |ddv_scf|^2 =  3.034E-11

      iter #   4 total cpu time :   139.8 secs   av.it.:  11.6
      thresh= 5.508E-07 alpha_mix =  0.700 |ddv_scf|^2 =  3.043E-13

      iter #   5 total cpu time :   142.2 secs   av.it.:  11.6
      thresh= 5.516E-08 alpha_mix =  0.700 |ddv_scf|^2 =  5.922E-15

      iter #   6 total cpu time :   145.0 secs   av.it.:  11.9
      thresh= 7.696E-09 alpha_mix =  0.700 |ddv_scf|^2 =  4.037E-17

     End of self-consistent calculation

     Convergence has been achieved 


     Representation #   4 modes #   5   6

     Self-consistent Calculation

      iter #   1 total cpu time :   147.0 secs   av.it.:   6.1
      thresh= 1.000E-02 alpha_mix =  0.700 |ddv_scf|^2 =  3.026E-08

      iter #   2 total cpu time :   150.9 secs   av.it.:  11.6
      thresh= 1.739E-05 alpha_mix =  0.700 |ddv_scf|^2 =  2.098E-09

      iter #   3 total cpu time :   154.8 secs   av.it.:  11.4
      thresh= 4.580E-06 alpha_mix =  0.700 |ddv_scf|^2 =  3.033E-11

      iter #   4 total cpu time :   156.2 secs   av.it.:  11.6
      thresh= 5.507E-07 alpha_mix =  0.700 |ddv_scf|^2 =  3.043E-13

      iter #   5 total cpu time :   158.7 secs   av.it.:  11.6
      thresh= 5.516E-08 alpha_mix =  0.700 |ddv_scf|^2 =  5.918E-15

      iter #   6 total cpu time :   161.0 secs   av.it.:  11.9
      thresh= 7.693E-09 alpha_mix =  0.700 |ddv_scf|^2 =  4.031E-17

     End of self-consistent calculation

     Convergence has been achieved 
 
     Number of q in the star =    8
     List of q in the star:
          1  -0.333333333   0.333333333  -0.333333333
          2   0.333333333   0.333333333   0.333333333
          3  -0.333333333  -0.333333333  -0.333333333
          4   0.333333333  -0.333333333   0.333333333
          5   0.333333333  -0.333333333  -0.333333333
          6   0.333333333   0.333333333  -0.333333333
          7  -0.333333333  -0.333333333   0.333333333
          8  -0.333333333   0.333333333   0.333333333

     Diagonalizing the dynamical matrix

     q = (   -0.333333333   0.333333333  -0.333333333 ) 

 **************************************************************************
     freq (    1) =       3.044080 [THz] =     101.539592 [cm-1]
     freq (    2) =       3.044080 [THz] =     101.539592 [cm-1]
     freq (    3) =       8.747061 [THz] =     291.770555 [cm-1]
     freq (    4) =      13.857037 [THz] =     462.220998 [cm-1]
     freq (    5) =      14.763294 [THz] =     492.450479 [cm-1]
     freq (    6) =      14.763294 [THz] =     492.450479 [cm-1]
 **************************************************************************

     Mode symmetry, C_3v (3m)   point group:

     freq (   1-   2) =        101.5  [cm-1]   --> E    L_3           
     freq (   3-   3) =        291.8  [cm-1]   --> A_1  L_1           
     freq (   4-   4) =        462.2  [cm-1]   --> A_1  L_1           
     freq (   5-   6) =        492.5  [cm-1]   --> E    L_3           

     Calculation of q =    0.5000000  -0.5000000   0.5000000
 
     Parallelization info
     --------------------
     sticks:   dense  smooth     PW     G-vecs:    dense   smooth      PW
     Min          55      55     18                 1158     1158     222
     Max          56      56     19                 1161     1161     224
     Sum        1003    1003    337                20875    20875    4015
 
     Using Slab Decomposition
 

     Title: 
     default                                                                    


     bravais-lattice index     =            2
     lattice parameter (alat)  =      10.1899  a.u.
     unit-cell volume          =     264.5151 (a.u.)^3
     number of atoms/cell      =            2
     number of atomic types    =            1
     number of electrons       =         8.00
     number of Kohn-Sham states=            4
     kinetic-energy cutoff     =      70.0000  Ry
     charge density cutoff     =     280.0000  Ry
     Exchange-correlation= PW
                           (   1   4   0   0   0   0   0)

     celldm(1)=  10.189905  celldm(2)=   0.000000  celldm(3)=   0.000000
     celldm(4)=   0.000000  celldm(5)=   0.000000  celldm(6)=   0.000000

     crystal axes: (cart. coord. in units of alat)
               a(1) = (  -0.500000   0.000000   0.500000 )  
               a(2) = (   0.000000   0.500000   0.500000 )  
               a(3) = (  -0.500000   0.500000   0.000000 )  

     reciprocal axes: (cart. coord. in units 2 pi/alat)
               b(1) = ( -1.000000 -1.000000  1.000000 )  
               b(2) = (  1.000000  1.000000  1.000000 )  
               b(3) = ( -1.000000  1.000000 -1.000000 )  


     PseudoPot. # 1 for Si read from file:
     ./pseudos/Si.nc.UPF
     MD5 check sum: 9e2d726316af3d4752eea8ab0afbb951
     Pseudo is Norm-conserving + core correction, Zval =  4.0
     Generated using ONCVPSP code by D. R. Hamann
     Using radial grid of 1510 points,  6 beta functions with: 
                l(1) =   0
                l(2) =   0
                l(3) =   1
                l(4) =   1
                l(5) =   2
                l(6) =   2

     atomic species   valence    mass     pseudopotential
        Si             4.00    28.08550     Si( 1.00)

     48 Sym. Ops., with inversion, found



   Cartesian axes

     site n.     atom                  positions (alat units)
         1           Si  tau(   1) = (   0.0000000   0.0000000   0.0000000  )
         2           Si  tau(   2) = (  -0.2500000   0.2500000   0.2500000  )

     number of k points=   182

     Number of k-points >= 100: set verbosity='high' to print them.

     Dense  grid:    20875 G-vectors     FFT dimensions: (  40,  40,  40)

     Estimated max dynamical RAM per process >       2.04 MB

     Estimated total dynamical RAM >     146.55 MB

     The potential is recalculated from file :
     /fastscratch/tsievers/QE_TMP_DIR/_ph0/si_ph_bench_poolsize_18_n_procs_72_3.save/charge-density

     Starting wfcs are    8 atomic wfcs

     Band Structure Calculation
     Davidson diagonalization with overlap

     ethr =  1.25E-10,  avg # of iterations = 12.9

     total cpu time spent up to now is       14.7 secs

     End of band structure calculation

     Number of k-points >= 100: set verbosity='high' to print the bands.

     highest occupied level (ev):     6.1106

     Writing config to output data dir /fastscratch/tsievers/QE_TMP_DIR/_ph0/si_ph_bench_poolsize_18_n_procs_72_3.save/

     default                                                                    

     bravais-lattice index     =            2
     lattice parameter (alat)  =      10.1899  a.u.
     unit-cell volume          =     264.5151 (a.u.)^3
     number of atoms/cell      =            2
     number of atomic types    =            1
     kinetic-energy cut-off    =      70.0000  Ry
     charge density cut-off    =     280.0000  Ry
     convergence threshold     =      1.0E-15
     beta                      =       0.7000
     number of iterations used =            4
     Exchange-correlation= PW
                           (   1   4   0   0   0   0   0)


     celldm(1)=   10.18990  celldm(2)=    0.00000  celldm(3)=    0.00000
     celldm(4)=    0.00000  celldm(5)=    0.00000  celldm(6)=    0.00000

     crystal axes: (cart. coord. in units of alat)
               a(1) = ( -0.5000  0.0000  0.5000 )  
               a(2) = (  0.0000  0.5000  0.5000 )  
               a(3) = ( -0.5000  0.5000  0.0000 )  

     reciprocal axes: (cart. coord. in units 2 pi/alat)
               b(1) = ( -1.0000 -1.0000  1.0000 )  
               b(2) = (  1.0000  1.0000  1.0000 )  
               b(3) = ( -1.0000  1.0000 -1.0000 )  


     Atoms inside the unit cell: 

     Cartesian axes

     site n.  atom      mass           positions (alat units)
        1     Si  28.0855   tau(    1) = (    0.00000    0.00000    0.00000  )
        2     Si  28.0855   tau(    2) = (   -0.25000    0.25000    0.25000  )

     Computing dynamical matrix for 
                    q = (   0.5000000  -0.5000000   0.5000000 )
 
     13 Sym.Ops. (with q -> -q+G )


     G cutoff =  736.4420  (   1161 G-vectors)     FFT grid: ( 40, 40, 40)
     number of k points=   182

     PseudoPot. # 1 for Si read from file:
     ./pseudos/Si.nc.UPF
     MD5 check sum: 9e2d726316af3d4752eea8ab0afbb951
     Pseudo is Norm-conserving + core correction, Zval =  4.0
     Generated using ONCVPSP code by D. R. Hamann
     Using radial grid of 1510 points,  6 beta functions with: 
                l(1) =   0
                l(2) =   0
                l(3) =   1
                l(4) =   1
                l(5) =   2
                l(6) =   2


     Atomic displacements:
     There are    4 irreducible representations

     Representation     1      1 modes -  To be done

     Representation     2      1 modes -  To be done

     Representation     3      2 modes -  To be done

     Representation     4      2 modes -  To be done



     Alpha used in Ewald sum =   2.8000
     PHONON       :   1m43.83s CPU   2m49.23s WALL



     Representation #   1 mode #   1

     Self-consistent Calculation

      iter #   1 total cpu time :   169.5 secs   av.it.:   5.8
      thresh= 1.000E-02 alpha_mix =  0.700 |ddv_scf|^2 =  1.725E-06

      iter #   2 total cpu time :   170.0 secs   av.it.:  10.2
      thresh= 1.313E-04 alpha_mix =  0.700 |ddv_scf|^2 =  1.591E-06

      iter #   3 total cpu time :   170.4 secs   av.it.:   9.6
      thresh= 1.261E-04 alpha_mix =  0.700 |ddv_scf|^2 =  2.127E-10

      iter #   4 total cpu time :   173.9 secs   av.it.:  10.3
      thresh= 1.458E-06 alpha_mix =  0.700 |ddv_scf|^2 =  3.655E-12

      iter #   5 total cpu time :   176.1 secs   av.it.:  10.1
      thresh= 1.912E-07 alpha_mix =  0.700 |ddv_scf|^2 =  5.256E-14

      iter #   6 total cpu time :   176.5 secs   av.it.:  10.1
      thresh= 2.293E-08 alpha_mix =  0.700 |ddv_scf|^2 =  6.889E-16

     End of self-consistent calculation

     Convergence has been achieved 


     Representation #   2 mode #   2

     Self-consistent Calculation

      iter #   1 total cpu time :   177.4 secs   av.it.:   6.7
      thresh= 1.000E-02 alpha_mix =  0.700 |ddv_scf|^2 =  2.635E-05

      iter #   2 total cpu time :   177.8 secs   av.it.:  10.3
      thresh= 5.133E-04 alpha_mix =  0.700 |ddv_scf|^2 =  8.609E-05

      iter #   3 total cpu time :   179.1 secs   av.it.:   9.3
      thresh= 9.278E-04 alpha_mix =  0.700 |ddv_scf|^2 =  5.088E-09

      iter #   4 total cpu time :   180.0 secs   av.it.:  10.0
      thresh= 7.133E-06 alpha_mix =  0.700 |ddv_scf|^2 =  1.069E-10

      iter #   5 total cpu time :   181.2 secs   av.it.:  10.5
      thresh= 1.034E-06 alpha_mix =  0.700 |ddv_scf|^2 =  5.333E-12

      iter #   6 total cpu time :   182.0 secs   av.it.:  10.3
      thresh= 2.309E-07 alpha_mix =  0.700 |ddv_scf|^2 =  1.503E-13

      iter #   7 total cpu time :   182.4 secs   av.it.:   9.7
      thresh= 3.877E-08 alpha_mix =  0.700 |ddv_scf|^2 =  2.733E-17

     End of self-consistent calculation

     Convergence has been achieved 


     Representation #   3 modes #   3   4

     Self-consistent Calculation

      iter #   1 total cpu time :   183.0 secs   av.it.:   6.1
      thresh= 1.000E-02 alpha_mix =  0.700 |ddv_scf|^2 =  6.089E-08

      iter #   2 total cpu time :   184.4 secs   av.it.:  11.5
      thresh= 2.468E-05 alpha_mix =  0.700 |ddv_scf|^2 =  5.162E-09

      iter #   3 total cpu time :   186.1 secs   av.it.:  11.3
      thresh= 7.184E-06 alpha_mix =  0.700 |ddv_scf|^2 =  3.456E-11

      iter #   4 total cpu time :   186.9 secs   av.it.:  11.4
      thresh= 5.879E-07 alpha_mix =  0.700 |ddv_scf|^2 =  3.865E-14

      iter #   5 total cpu time :   188.0 secs   av.it.:  11.7
      thresh= 1.966E-08 alpha_mix =  0.700 |ddv_scf|^2 =  5.087E-16

     End of self-consistent calculation

     Convergence has been achieved 


     Representation #   4 modes #   5   6

     Self-consistent Calculation

      iter #   1 total cpu time :   188.8 secs   av.it.:   5.5
      thresh= 1.000E-02 alpha_mix =  0.700 |ddv_scf|^2 =  6.911E-09

      iter #   2 total cpu time :   190.5 secs   av.it.:  11.5
      thresh= 8.313E-06 alpha_mix =  0.700 |ddv_scf|^2 =  1.812E-10

      iter #   3 total cpu time :   191.7 secs   av.it.:  11.5
      thresh= 1.346E-06 alpha_mix =  0.700 |ddv_scf|^2 =  1.114E-11

      iter #   4 total cpu time :   193.3 secs   av.it.:  11.5
      thresh= 3.338E-07 alpha_mix =  0.700 |ddv_scf|^2 =  4.765E-14

      iter #   5 total cpu time :   194.1 secs   av.it.:  11.5
      thresh= 2.183E-08 alpha_mix =  0.700 |ddv_scf|^2 =  7.614E-16

     End of self-consistent calculation

     Convergence has been achieved 
 
     Number of q in the star =    4
     List of q in the star:
          1   0.500000000  -0.500000000   0.500000000
          2   0.500000000   0.500000000   0.500000000
          3  -0.500000000   0.500000000   0.500000000
          4   0.500000000   0.500000000  -0.500000000

     Diagonalizing the dynamical matrix

     q = (    0.500000000  -0.500000000   0.500000000 ) 

 **************************************************************************
     freq (    1) =       3.157167 [THz] =     105.311744 [cm-1]
     freq (    2) =       3.157167 [THz] =     105.311744 [cm-1]
     freq (    3) =      11.169083 [THz] =     372.560491 [cm-1]
     freq (    4) =      12.390635 [THz] =     413.307089 [cm-1]
     freq (    5) =      14.704256 [THz] =     490.481169 [cm-1]
     freq (    6) =      14.704256 [THz] =     490.481169 [cm-1]
 **************************************************************************

     Calculation of q =    0.0000000   0.3333333   0.0000000
 
     Parallelization info
     --------------------
     sticks:   dense  smooth     PW     G-vecs:    dense   smooth      PW
     Min          55      55     17                 1158     1158     206
     Max          56      56     18                 1161     1161     209
     Sum        1003    1003    313                20875    20875    3719
 
     Using Slab Decomposition
 

     Title: 
     default                                                                    


     bravais-lattice index     =            2
     lattice parameter (alat)  =      10.1899  a.u.
     unit-cell volume          =     264.5151 (a.u.)^3
     number of atoms/cell      =            2
     number of atomic types    =            1
     number of electrons       =         8.00
     number of Kohn-Sham states=            4
     kinetic-energy cutoff     =      70.0000  Ry
     charge density cutoff     =     280.0000  Ry
     Exchange-correlation= PW
                           (   1   4   0   0   0   0   0)

     celldm(1)=  10.189905  celldm(2)=   0.000000  celldm(3)=   0.000000
     celldm(4)=   0.000000  celldm(5)=   0.000000  celldm(6)=   0.000000

     crystal axes: (cart. coord. in units of alat)
               a(1) = (  -0.500000   0.000000   0.500000 )  
               a(2) = (   0.000000   0.500000   0.500000 )  
               a(3) = (  -0.500000   0.500000   0.000000 )  

     reciprocal axes: (cart. coord. in units 2 pi/alat)
               b(1) = ( -1.000000 -1.000000  1.000000 )  
               b(2) = (  1.000000  1.000000  1.000000 )  
               b(3) = ( -1.000000  1.000000 -1.000000 )  


     PseudoPot. # 1 for Si read from file:
     ./pseudos/Si.nc.UPF
     MD5 check sum: 9e2d726316af3d4752eea8ab0afbb951
     Pseudo is Norm-conserving + core correction, Zval =  4.0
     Generated using ONCVPSP code by D. R. Hamann
     Using radial grid of 1510 points,  6 beta functions with: 
                l(1) =   0
                l(2) =   0
                l(3) =   1
                l(4) =   1
                l(5) =   2
                l(6) =   2

     atomic species   valence    mass     pseudopotential
        Si             4.00    28.08550     Si( 1.00)

     48 Sym. Ops., with inversion, found



   Cartesian axes

     site n.     atom                  positions (alat units)
         1           Si  tau(   1) = (   0.0000000   0.0000000   0.0000000  )
         2           Si  tau(   2) = (  -0.2500000   0.2500000   0.2500000  )

     number of k points=   252

     Number of k-points >= 100: set verbosity='high' to print them.

     Dense  grid:    20875 G-vectors     FFT dimensions: (  40,  40,  40)

     Estimated max dynamical RAM per process >       2.01 MB

     Estimated total dynamical RAM >     144.65 MB

     The potential is recalculated from file :
     /fastscratch/tsievers/QE_TMP_DIR/_ph0/si_ph_bench_poolsize_18_n_procs_72_3.save/charge-density

     Starting wfcs are    8 atomic wfcs

     Band Structure Calculation
     Davidson diagonalization with overlap

     ethr =  1.25E-10,  avg # of iterations = 12.8

     total cpu time spent up to now is       21.6 secs

     End of band structure calculation

     Number of k-points >= 100: set verbosity='high' to print the bands.

     highest occupied level (ev):     6.1106

     Writing config to output data dir /fastscratch/tsievers/QE_TMP_DIR/_ph0/si_ph_bench_poolsize_18_n_procs_72_3.save/

     default                                                                    

     bravais-lattice index     =            2
     lattice parameter (alat)  =      10.1899  a.u.
     unit-cell volume          =     264.5151 (a.u.)^3
     number of atoms/cell      =            2
     number of atomic types    =            1
     kinetic-energy cut-off    =      70.0000  Ry
     charge density cut-off    =     280.0000  Ry
     convergence threshold     =      1.0E-15
     beta                      =       0.7000
     number of iterations used =            4
     Exchange-correlation= PW
                           (   1   4   0   0   0   0   0)


     celldm(1)=   10.18990  celldm(2)=    0.00000  celldm(3)=    0.00000
     celldm(4)=    0.00000  celldm(5)=    0.00000  celldm(6)=    0.00000

     crystal axes: (cart. coord. in units of alat)
               a(1) = ( -0.5000  0.0000  0.5000 )  
               a(2) = (  0.0000  0.5000  0.5000 )  
               a(3) = ( -0.5000  0.5000  0.0000 )  

     reciprocal axes: (cart. coord. in units 2 pi/alat)
               b(1) = ( -1.0000 -1.0000  1.0000 )  
               b(2) = (  1.0000  1.0000  1.0000 )  
               b(3) = ( -1.0000  1.0000 -1.0000 )  


     Atoms inside the unit cell: 

     Cartesian axes

     site n.  atom      mass           positions (alat units)
        1     Si  28.0855   tau(    1) = (    0.00000    0.00000    0.00000  )
        2     Si  28.0855   tau(    2) = (   -0.25000    0.25000    0.25000  )

     Computing dynamical matrix for 
                    q = (   0.0000000   0.3333333   0.0000000 )
 
      8 Sym.Ops. (no q -> -q+G )


     G cutoff =  736.4420  (   1161 G-vectors)     FFT grid: ( 40, 40, 40)
     number of k points=   252

     PseudoPot. # 1 for Si read from file:
     ./pseudos/Si.nc.UPF
     MD5 check sum: 9e2d726316af3d4752eea8ab0afbb951
     Pseudo is Norm-conserving + core correction, Zval =  4.0
     Generated using ONCVPSP code by D. R. Hamann
     Using radial grid of 1510 points,  6 beta functions with: 
                l(1) =   0
                l(2) =   0
                l(3) =   1
                l(4) =   1
                l(5) =   2
                l(6) =   2

     Mode symmetry, C_4v (4mm)  point group:


     Atomic displacements:
     There are    4 irreducible representations

     Representation     1      1 modes -  To be done

     Representation     2      1 modes -  To be done

     Representation     3      2 modes -  To be done

     Representation     4      2 modes -  To be done



     Alpha used in Ewald sum =   2.8000
     PHONON       :   2m 1.84s CPU   3m16.92s WALL



     Representation #   1 mode #   1

     Self-consistent Calculation

      iter #   1 total cpu time :   197.7 secs   av.it.:   6.8
      thresh= 1.000E-02 alpha_mix =  0.700 |ddv_scf|^2 =  1.144E-03

      iter #   2 total cpu time :   199.1 secs   av.it.:   9.4
      thresh= 3.382E-03 alpha_mix =  0.700 |ddv_scf|^2 =  3.487E-02

      iter #   3 total cpu time :   199.7 secs   av.it.:   8.1
      thresh= 1.000E-02 alpha_mix =  0.700 |ddv_scf|^2 =  3.209E-08

      iter #   4 total cpu time :   201.9 secs   av.it.:   9.2
      thresh= 1.791E-05 alpha_mix =  0.700 |ddv_scf|^2 =  1.528E-09

      iter #   5 total cpu time :   202.8 secs   av.it.:   8.9
      thresh= 3.909E-06 alpha_mix =  0.700 |ddv_scf|^2 =  4.950E-10

      iter #   6 total cpu time :   203.3 secs   av.it.:   8.4
      thresh= 2.225E-06 alpha_mix =  0.700 |ddv_scf|^2 =  6.677E-13

      iter #   7 total cpu time :   206.2 secs   av.it.:   8.7
      thresh= 8.171E-08 alpha_mix =  0.700 |ddv_scf|^2 =  1.491E-14

      iter #   8 total cpu time :   215.4 secs   av.it.:   8.7
      thresh= 1.221E-08 alpha_mix =  0.700 |ddv_scf|^2 =  1.989E-16

     End of self-consistent calculation

     Convergence has been achieved 


     Representation #   2 mode #   2

     Self-consistent Calculation

      iter #   1 total cpu time :   216.4 secs   av.it.:   5.9
      thresh= 1.000E-02 alpha_mix =  0.700 |ddv_scf|^2 =  1.746E-07

      iter #   2 total cpu time :   226.8 secs   av.it.:  10.7
      thresh= 4.178E-05 alpha_mix =  0.700 |ddv_scf|^2 =  2.823E-08

      iter #   3 total cpu time :   227.5 secs   av.it.:  10.5
      thresh= 1.680E-05 alpha_mix =  0.700 |ddv_scf|^2 =  3.571E-10

      iter #   4 total cpu time :   229.2 secs   av.it.:  10.5
      thresh= 1.890E-06 alpha_mix =  0.700 |ddv_scf|^2 =  1.483E-11

      iter #   5 total cpu time :   229.8 secs   av.it.:  10.6
      thresh= 3.851E-07 alpha_mix =  0.700 |ddv_scf|^2 =  3.377E-14

      iter #   6 total cpu time :   230.4 secs   av.it.:  10.7
      thresh= 1.838E-08 alpha_mix =  0.700 |ddv_scf|^2 =  6.752E-16

     End of self-consistent calculation

     Convergence has been achieved 


     Representation #   3 modes #   3   4

     Self-consistent Calculation

      iter #   1 total cpu time :   232.6 secs   av.it.:   6.0
      thresh= 1.000E-02 alpha_mix =  0.700 |ddv_scf|^2 =  3.160E-08

      iter #   2 total cpu time :   234.6 secs   av.it.:  11.6
      thresh= 1.778E-05 alpha_mix =  0.700 |ddv_scf|^2 =  2.880E-09

      iter #   3 total cpu time :   240.8 secs   av.it.:  11.4
      thresh= 5.367E-06 alpha_mix =  0.700 |ddv_scf|^2 =  3.357E-11

      iter #   4 total cpu time :   242.9 secs   av.it.:  11.6
      thresh= 5.794E-07 alpha_mix =  0.700 |ddv_scf|^2 =  3.776E-13

      iter #   5 total cpu time :   245.7 secs   av.it.:  11.5
      thresh= 6.145E-08 alpha_mix =  0.700 |ddv_scf|^2 =  6.269E-15

      iter #   6 total cpu time :   248.4 secs   av.it.:  11.9
      thresh= 7.918E-09 alpha_mix =  0.700 |ddv_scf|^2 =  2.553E-17

     End of self-consistent calculation

     Convergence has been achieved 


     Representation #   4 modes #   5   6

     Self-consistent Calculation

      iter #   1 total cpu time :   249.7 secs   av.it.:   6.0
      thresh= 1.000E-02 alpha_mix =  0.700 |ddv_scf|^2 =  4.166E-08

      iter #   2 total cpu time :   252.4 secs   av.it.:  11.5
      thresh= 2.041E-05 alpha_mix =  0.700 |ddv_scf|^2 =  3.928E-09

      iter #   3 total cpu time :   253.5 secs   av.it.:  11.2
      thresh= 6.267E-06 alpha_mix =  0.700 |ddv_scf|^2 =  3.554E-11

      iter #   4 total cpu time :   255.5 secs   av.it.:  11.5
      thresh= 5.962E-07 alpha_mix =  0.700 |ddv_scf|^2 =  2.417E-13

      iter #   5 total cpu time :   256.6 secs   av.it.:  11.4
      thresh= 4.916E-08 alpha_mix =  0.700 |ddv_scf|^2 =  5.739E-15

      iter #   6 total cpu time :   258.6 secs   av.it.:  11.9
      thresh= 7.576E-09 alpha_mix =  0.700 |ddv_scf|^2 =  2.430E-17

     End of self-consistent calculation

     Convergence has been achieved 
 
     Number of q in the star =    6
     List of q in the star:
          1   0.000000000   0.333333333   0.000000000
          2   0.333333333   0.000000000   0.000000000
          3   0.000000000   0.000000000   0.333333333
          4   0.000000000  -0.333333333   0.000000000
          5  -0.333333333   0.000000000   0.000000000
          6   0.000000000   0.000000000  -0.333333333

     Diagonalizing the dynamical matrix

     q = (    0.000000000   0.333333333   0.000000000 ) 

 **************************************************************************
     freq (    1) =       2.948427 [THz] =      98.348942 [cm-1]
     freq (    2) =       2.948427 [THz] =      98.348942 [cm-1]
     freq (    3) =       4.953305 [THz] =     165.224469 [cm-1]
     freq (    4) =      14.670272 [THz] =     489.347596 [cm-1]
     freq (    5) =      14.670272 [THz] =     489.347596 [cm-1]
     freq (    6) =      15.142884 [THz] =     505.112239 [cm-1]
 **************************************************************************

     Mode symmetry, C_4v (4mm)  point group:

     freq (   1-   2) =         98.3  [cm-1]   --> E    G_5 D_5       
     freq (   3-   3) =        165.2  [cm-1]   --> A_1  G_1 D_1       
     freq (   4-   5) =        489.3  [cm-1]   --> E    G_5 D_5       
     freq (   6-   6) =        505.1  [cm-1]   --> B_2  G_4 D_2'      

     Calculation of q =   -0.1666667   0.5000000  -0.1666667
 
     Parallelization info
     --------------------
     sticks:   dense  smooth     PW     G-vecs:    dense   smooth      PW
     Min          55      55     17                 1158     1158     211
     Max          56      56     18                 1161     1161     216
     Sum        1003    1003    313                20875    20875    3839
 
     Using Slab Decomposition
 

     Title: 
     default                                                                    


     bravais-lattice index     =            2
     lattice parameter (alat)  =      10.1899  a.u.
     unit-cell volume          =     264.5151 (a.u.)^3
     number of atoms/cell      =            2
     number of atomic types    =            1
     number of electrons       =         8.00
     number of Kohn-Sham states=            4
     kinetic-energy cutoff     =      70.0000  Ry
     charge density cutoff     =     280.0000  Ry
     Exchange-correlation= PW
                           (   1   4   0   0   0   0   0)

     celldm(1)=  10.189905  celldm(2)=   0.000000  celldm(3)=   0.000000
     celldm(4)=   0.000000  celldm(5)=   0.000000  celldm(6)=   0.000000

     crystal axes: (cart. coord. in units of alat)
               a(1) = (  -0.500000   0.000000   0.500000 )  
               a(2) = (   0.000000   0.500000   0.500000 )  
               a(3) = (  -0.500000   0.500000   0.000000 )  

     reciprocal axes: (cart. coord. in units 2 pi/alat)
               b(1) = ( -1.000000 -1.000000  1.000000 )  
               b(2) = (  1.000000  1.000000  1.000000 )  
               b(3) = ( -1.000000  1.000000 -1.000000 )  


     PseudoPot. # 1 for Si read from file:
     ./pseudos/Si.nc.UPF
     MD5 check sum: 9e2d726316af3d4752eea8ab0afbb951
     Pseudo is Norm-conserving + core correction, Zval =  4.0
     Generated using ONCVPSP code by D. R. Hamann
     Using radial grid of 1510 points,  6 beta functions with: 
                l(1) =   0
                l(2) =   0
                l(3) =   1
                l(4) =   1
                l(5) =   2
                l(6) =   2

     atomic species   valence    mass     pseudopotential
        Si             4.00    28.08550     Si( 1.00)

     48 Sym. Ops., with inversion, found



   Cartesian axes

     site n.     atom                  positions (alat units)
         1           Si  tau(   1) = (   0.0000000   0.0000000   0.0000000  )
         2           Si  tau(   2) = (  -0.2500000   0.2500000   0.2500000  )

     number of k points=   936

     Number of k-points >= 100: set verbosity='high' to print them.

     Dense  grid:    20875 G-vectors     FFT dimensions: (  40,  40,  40)

     Estimated max dynamical RAM per process >       2.02 MB

     Estimated total dynamical RAM >     145.45 MB

     The potential is recalculated from file :
     /fastscratch/tsievers/QE_TMP_DIR/_ph0/si_ph_bench_poolsize_18_n_procs_72_3.save/charge-density

     Starting wfcs are    8 atomic wfcs

     Band Structure Calculation
     Davidson diagonalization with overlap

     ethr =  1.25E-10,  avg # of iterations = 12.8

     total cpu time spent up to now is       25.5 secs

     End of band structure calculation

     Number of k-points >= 100: set verbosity='high' to print the bands.

     highest occupied level (ev):     6.1106

     Writing config to output data dir /fastscratch/tsievers/QE_TMP_DIR/_ph0/si_ph_bench_poolsize_18_n_procs_72_3.save/

     default                                                                    

     bravais-lattice index     =            2
     lattice parameter (alat)  =      10.1899  a.u.
     unit-cell volume          =     264.5151 (a.u.)^3
     number of atoms/cell      =            2
     number of atomic types    =            1
     kinetic-energy cut-off    =      70.0000  Ry
     charge density cut-off    =     280.0000  Ry
     convergence threshold     =      1.0E-15
     beta                      =       0.7000
     number of iterations used =            4
     Exchange-correlation= PW
                           (   1   4   0   0   0   0   0)


     celldm(1)=   10.18990  celldm(2)=    0.00000  celldm(3)=    0.00000
     celldm(4)=    0.00000  celldm(5)=    0.00000  celldm(6)=    0.00000

     crystal axes: (cart. coord. in units of alat)
               a(1) = ( -0.5000  0.0000  0.5000 )  
               a(2) = (  0.0000  0.5000  0.5000 )  
               a(3) = ( -0.5000  0.5000  0.0000 )  

     reciprocal axes: (cart. coord. in units 2 pi/alat)
               b(1) = ( -1.0000 -1.0000  1.0000 )  
               b(2) = (  1.0000  1.0000  1.0000 )  
               b(3) = ( -1.0000  1.0000 -1.0000 )  


     Atoms inside the unit cell: 

     Cartesian axes

     site n.  atom      mass           positions (alat units)
        1     Si  28.0855   tau(    1) = (    0.00000    0.00000    0.00000  )
        2     Si  28.0855   tau(    2) = (   -0.25000    0.25000    0.25000  )

     Computing dynamical matrix for 
                    q = (  -0.1666667   0.5000000  -0.1666667 )
 
      2 Sym.Ops. (no q -> -q+G )


[...]
      thresh= 1.000E-02 alpha_mix =  0.700 |ddv_scf|^2 =  2.953E-06

      iter #   2 total cpu time :  1222.5 secs   av.it.:  11.1
      thresh= 1.719E-04 alpha_mix =  0.700 |ddv_scf|^2 =  3.745E-06

      iter #   3 total cpu time :  1225.6 secs   av.it.:  10.2
      thresh= 1.935E-04 alpha_mix =  0.700 |ddv_scf|^2 =  4.286E-08

      iter #   4 total cpu time :  1227.1 secs   av.it.:  10.4
      thresh= 2.070E-05 alpha_mix =  0.700 |ddv_scf|^2 =  2.156E-10

      iter #   5 total cpu time :  1228.8 secs   av.it.:  10.8
      thresh= 1.468E-06 alpha_mix =  0.700 |ddv_scf|^2 =  5.467E-12

      iter #   6 total cpu time :  1230.4 secs   av.it.:  10.9
      thresh= 2.338E-07 alpha_mix =  0.700 |ddv_scf|^2 =  3.211E-14

      iter #   7 total cpu time :  1232.0 secs   av.it.:  10.7
      thresh= 1.792E-08 alpha_mix =  0.700 |ddv_scf|^2 =  3.576E-15

      iter #   8 total cpu time :  1233.5 secs   av.it.:  10.8
      thresh= 5.980E-09 alpha_mix =  0.700 |ddv_scf|^2 =  1.336E-16

     End of self-consistent calculation

     Convergence has been achieved 


     Representation #   6 mode #   6

     Self-consistent Calculation

      iter #   1 total cpu time :  1234.9 secs   av.it.:   6.3
      thresh= 1.000E-02 alpha_mix =  0.700 |ddv_scf|^2 =  1.388E-06

      iter #   2 total cpu time :  1236.7 secs   av.it.:  11.0
      thresh= 1.178E-04 alpha_mix =  0.700 |ddv_scf|^2 =  1.522E-06

      iter #   3 total cpu time :  1238.2 secs   av.it.:  10.2
      thresh= 1.234E-04 alpha_mix =  0.700 |ddv_scf|^2 =  3.726E-08

      iter #   4 total cpu time :  1239.8 secs   av.it.:  10.3
      thresh= 1.930E-05 alpha_mix =  0.700 |ddv_scf|^2 =  1.216E-10

      iter #   5 total cpu time :  1241.4 secs   av.it.:  10.7
      thresh= 1.103E-06 alpha_mix =  0.700 |ddv_scf|^2 =  2.290E-12

      iter #   6 total cpu time :  1243.4 secs   av.it.:  10.8
      thresh= 1.513E-07 alpha_mix =  0.700 |ddv_scf|^2 =  1.070E-14

      iter #   7 total cpu time :  1245.0 secs   av.it.:  10.8
      thresh= 1.034E-08 alpha_mix =  0.700 |ddv_scf|^2 =  6.129E-16

     End of self-consistent calculation

     Convergence has been achieved 
 
     Number of q in the star =   24
     List of q in the star:
          1   0.500000000  -0.166666667   0.833333333
          2   0.833333333   0.166666667   0.500000000
          3   0.500000000   0.166666667   0.833333333
          4  -0.833333333  -0.166666667   0.500000000
          5  -0.833333333  -0.166666667  -0.500000000
          6  -0.500000000  -0.166666667  -0.833333333
          7   0.833333333  -0.166666667   0.500000000
          8  -0.500000000  -0.166666667   0.833333333
          9  -0.833333333   0.166666667   0.500000000
         10   0.833333333   0.166666667  -0.500000000
         11   0.833333333  -0.166666667  -0.500000000
         12   0.500000000   0.166666667  -0.833333333
         13  -0.500000000   0.166666667   0.833333333
         14  -0.500000000   0.166666667  -0.833333333
         15  -0.833333333   0.166666667  -0.500000000
         16   0.833333333  -0.500000000   0.166666667
         17   0.833333333   0.500000000  -0.166666667
         18  -0.833333333  -0.500000000  -0.166666667
         19  -0.833333333   0.500000000   0.166666667
         20   0.166666667  -0.500000000   0.833333333
         21  -0.166666667   0.500000000   0.833333333
         22   0.166666667   0.500000000  -0.833333333
         23  -0.166666667  -0.500000000  -0.833333333
         24  -0.500000000   0.833333333   0.166666667

     Diagonalizing the dynamical matrix

     q = (    0.500000000  -0.166666667   0.833333333 ) 

 **************************************************************************
     freq (    1) =       5.051995 [THz] =     168.516421 [cm-1]
     freq (    2) =       6.066480 [THz] =     202.355985 [cm-1]
     freq (    3) =       9.812695 [THz] =     327.316264 [cm-1]
     freq (    4) =      11.453328 [THz] =     382.041908 [cm-1]
     freq (    5) =      14.042007 [THz] =     468.390938 [cm-1]
     freq (    6) =      14.270706 [THz] =     476.019521 [cm-1]
 **************************************************************************

     Calculation of q =   -0.3333333  -1.0000000   0.0000000
 
     Parallelization info
     --------------------
     sticks:   dense  smooth     PW     G-vecs:    dense   smooth      PW
     Min          55      55     19                 1158     1158     236
     Max          56      56     20                 1161     1161     239
     Sum        1003    1003    349                20875    20875    4279
 
     Using Slab Decomposition
 

     Title: 
     default                                                                    


     bravais-lattice index     =            2
     lattice parameter (alat)  =      10.1899  a.u.
     unit-cell volume          =     264.5151 (a.u.)^3
     number of atoms/cell      =            2
     number of atomic types    =            1
     number of electrons       =         8.00
     number of Kohn-Sham states=            4
     kinetic-energy cutoff     =      70.0000  Ry
     charge density cutoff     =     280.0000  Ry
     Exchange-correlation= PW
                           (   1   4   0   0   0   0   0)

     celldm(1)=  10.189905  celldm(2)=   0.000000  celldm(3)=   0.000000
     celldm(4)=   0.000000  celldm(5)=   0.000000  celldm(6)=   0.000000

     crystal axes: (cart. coord. in units of alat)
               a(1) = (  -0.500000   0.000000   0.500000 )  
               a(2) = (   0.000000   0.500000   0.500000 )  
               a(3) = (  -0.500000   0.500000   0.000000 )  

     reciprocal axes: (cart. coord. in units 2 pi/alat)
               b(1) = ( -1.000000 -1.000000  1.000000 )  
               b(2) = (  1.000000  1.000000  1.000000 )  
               b(3) = ( -1.000000  1.000000 -1.000000 )  


     PseudoPot. # 1 for Si read from file:
     ./pseudos/Si.nc.UPF
     MD5 check sum: 9e2d726316af3d4752eea8ab0afbb951
     Pseudo is Norm-conserving + core correction, Zval =  4.0
     Generated using ONCVPSP code by D. R. Hamann
     Using radial grid of 1510 points,  6 beta functions with: 
                l(1) =   0
                l(2) =   0
                l(3) =   1
                l(4) =   1
                l(5) =   2
                l(6) =   2

     atomic species   valence    mass     pseudopotential
        Si             4.00    28.08550     Si( 1.00)

     48 Sym. Ops., with inversion, found



   Cartesian axes

     site n.     atom                  positions (alat units)
         1           Si  tau(   1) = (   0.0000000   0.0000000   0.0000000  )
         2           Si  tau(   2) = (  -0.2500000   0.2500000   0.2500000  )

     number of k points=   432

     Number of k-points >= 100: set verbosity='high' to print them.

     Dense  grid:    20875 G-vectors     FFT dimensions: (  40,  40,  40)

     Estimated max dynamical RAM per process >       2.04 MB

     Estimated total dynamical RAM >     147.24 MB

     The potential is recalculated from file :
     /fastscratch/tsievers/QE_TMP_DIR/_ph0/si_ph_bench_poolsize_18_n_procs_72_3.save/charge-density

     Starting wfcs are    8 atomic wfcs

     Band Structure Calculation
     Davidson diagonalization with overlap

     ethr =  1.25E-10,  avg # of iterations = 12.8

     total cpu time spent up to now is       78.5 secs

     End of band structure calculation

     Number of k-points >= 100: set verbosity='high' to print the bands.

     highest occupied level (ev):     6.1106

     Writing config to output data dir /fastscratch/tsievers/QE_TMP_DIR/_ph0/si_ph_bench_poolsize_18_n_procs_72_3.save/

     default                                                                    

     bravais-lattice index     =            2
     lattice parameter (alat)  =      10.1899  a.u.
     unit-cell volume          =     264.5151 (a.u.)^3
     number of atoms/cell      =            2
     number of atomic types    =            1
     kinetic-energy cut-off    =      70.0000  Ry
     charge density cut-off    =     280.0000  Ry
     convergence threshold     =      1.0E-15
     beta                      =       0.7000
     number of iterations used =            4
     Exchange-correlation= PW
                           (   1   4   0   0   0   0   0)


     celldm(1)=   10.18990  celldm(2)=    0.00000  celldm(3)=    0.00000
     celldm(4)=    0.00000  celldm(5)=    0.00000  celldm(6)=    0.00000

     crystal axes: (cart. coord. in units of alat)
               a(1) = ( -0.5000  0.0000  0.5000 )  
               a(2) = (  0.0000  0.5000  0.5000 )  
               a(3) = ( -0.5000  0.5000  0.0000 )  

     reciprocal axes: (cart. coord. in units 2 pi/alat)
               b(1) = ( -1.0000 -1.0000  1.0000 )  
               b(2) = (  1.0000  1.0000  1.0000 )  
               b(3) = ( -1.0000  1.0000 -1.0000 )  


     Atoms inside the unit cell: 

     Cartesian axes

     site n.  atom      mass           positions (alat units)
        1     Si  28.0855   tau(    1) = (    0.00000    0.00000    0.00000  )
        2     Si  28.0855   tau(    2) = (   -0.25000    0.25000    0.25000  )

     Computing dynamical matrix for 
                    q = (  -0.3333333  -1.0000000   0.0000000 )
 
      4 Sym.Ops. (no q -> -q+G )


     G cutoff =  736.4420  (   1161 G-vectors)     FFT grid: ( 40, 40, 40)
     number of k points=   432

     PseudoPot. # 1 for Si read from file:
     ./pseudos/Si.nc.UPF
     MD5 check sum: 9e2d726316af3d4752eea8ab0afbb951
     Pseudo is Norm-conserving + core correction, Zval =  4.0
     Generated using ONCVPSP code by D. R. Hamann
     Using radial grid of 1510 points,  6 beta functions with: 
                l(1) =   0
                l(2) =   0
                l(3) =   1
                l(4) =   1
                l(5) =   2
                l(6) =   2


     Atomic displacements:
     There are    3 irreducible representations

     Representation     1      2 modes -  To be done

     Representation     2      2 modes -  To be done

     Representation     3      2 modes -  To be done



     Alpha used in Ewald sum =   2.8000
     PHONON       :  15m26.81s CPU  20m51.69s WALL



     Representation #   1 modes #   1   2

     Self-consistent Calculation

      iter #   1 total cpu time :  1252.8 secs   av.it.:   6.2
      thresh= 1.000E-02 alpha_mix =  0.700 |ddv_scf|^2 =  2.767E-07

      iter #   2 total cpu time :  1255.2 secs   av.it.:  11.7
      thresh= 5.260E-05 alpha_mix =  0.700 |ddv_scf|^2 =  3.085E-07

      iter #   3 total cpu time :  1257.4 secs   av.it.:  11.1
      thresh= 5.554E-05 alpha_mix =  0.700 |ddv_scf|^2 =  2.513E-09

      iter #   4 total cpu time :  1259.1 secs   av.it.:  11.2
      thresh= 5.013E-06 alpha_mix =  0.700 |ddv_scf|^2 =  5.097E-11

      iter #   5 total cpu time :  1262.3 secs   av.it.:  11.4
      thresh= 7.139E-07 alpha_mix =  0.700 |ddv_scf|^2 =  5.889E-13

      iter #   6 total cpu time :  1264.8 secs   av.it.:  11.6
      thresh= 7.674E-08 alpha_mix =  0.700 |ddv_scf|^2 =  1.179E-14

      iter #   7 total cpu time :  1266.5 secs   av.it.:  11.5
      thresh= 1.086E-08 alpha_mix =  0.700 |ddv_scf|^2 =  6.129E-16

     End of self-consistent calculation

     Convergence has been achieved 


     Representation #   2 modes #   3   4

     Self-consistent Calculation

      iter #   1 total cpu time :  1268.0 secs   av.it.:   6.4
      thresh= 1.000E-02 alpha_mix =  0.700 |ddv_scf|^2 =  5.016E-07

      iter #   2 total cpu time :  1270.1 secs   av.it.:  11.8
      thresh= 7.083E-05 alpha_mix =  0.700 |ddv_scf|^2 =  5.625E-07

      iter #   3 total cpu time :  1272.6 secs   av.it.:  11.1
      thresh= 7.500E-05 alpha_mix =  0.700 |ddv_scf|^2 =  4.861E-09

      iter #   4 total cpu time :  1274.6 secs   av.it.:  11.2
      thresh= 6.972E-06 alpha_mix =  0.700 |ddv_scf|^2 =  5.073E-11

      iter #   5 total cpu time :  1277.7 secs   av.it.:  11.4
      thresh= 7.122E-07 alpha_mix =  0.700 |ddv_scf|^2 =  1.156E-12

      iter #   6 total cpu time :  1279.4 secs   av.it.:  11.6
      thresh= 1.075E-07 alpha_mix =  0.700 |ddv_scf|^2 =  9.175E-15

      iter #   7 total cpu time :  1281.1 secs   av.it.:  11.5
      thresh= 9.579E-09 alpha_mix =  0.700 |ddv_scf|^2 =  5.760E-16

     End of self-consistent calculation

     Convergence has been achieved 


     Representation #   3 modes #   5   6

     Self-consistent Calculation

      iter #   1 total cpu time :  1283.2 secs   av.it.:   6.5
      thresh= 1.000E-02 alpha_mix =  0.700 |ddv_scf|^2 =  6.644E-07

      iter #   2 total cpu time :  1285.7 secs   av.it.:  11.6
      thresh= 8.151E-05 alpha_mix =  0.700 |ddv_scf|^2 =  7.292E-07

      iter #   3 total cpu time :  1288.5 secs   av.it.:  11.0
      thresh= 8.539E-05 alpha_mix =  0.700 |ddv_scf|^2 =  5.885E-09

      iter #   4 total cpu time :  1290.2 secs   av.it.:  11.1
      thresh= 7.671E-06 alpha_mix =  0.700 |ddv_scf|^2 =  3.995E-11

      iter #   5 total cpu time :  1292.1 secs   av.it.:  11.4
      thresh= 6.320E-07 alpha_mix =  0.700 |ddv_scf|^2 =  3.790E-13

      iter #   6 total cpu time :  1294.1 secs   av.it.:  11.5
      thresh= 6.156E-08 alpha_mix =  0.700 |ddv_scf|^2 =  6.650E-15

      iter #   7 total cpu time :  1295.8 secs   av.it.:  11.4
      thresh= 8.155E-09 alpha_mix =  0.700 |ddv_scf|^2 =  3.995E-16

     End of self-consistent calculation

     Convergence has been achieved 
 
     Number of q in the star =   12
     List of q in the star:
          1  -0.333333333  -1.000000000   0.000000000
          2   0.000000000  -1.000000000  -0.333333333
          3   0.000000000  -1.000000000   0.333333333
          4   0.333333333  -1.000000000   0.000000000
          5  -1.000000000   0.000000000  -0.333333333
          6   1.000000000   0.000000000   0.333333333
          7   0.000000000   0.333333333   1.000000000
          8   0.000000000  -0.333333333  -1.000000000
          9  -1.000000000  -0.333333333   0.000000000
         10   1.000000000   0.333333333   0.000000000
         11  -0.333333333   0.000000000   1.000000000
         12   0.333333333   0.000000000   1.000000000

     Diagonalizing the dynamical matrix

     q = (   -0.333333333  -1.000000000   0.000000000 ) 

 **************************************************************************
     freq (    1) =       5.494041 [THz] =     183.261496 [cm-1]
     freq (    2) =       5.494041 [THz] =     183.261496 [cm-1]
     freq (    3) =      10.966350 [THz] =     365.798055 [cm-1]
     freq (    4) =      10.966350 [THz] =     365.798055 [cm-1]
     freq (    5) =      14.002430 [THz] =     467.070777 [cm-1]
     freq (    6) =      14.002430 [THz] =     467.070777 [cm-1]
 **************************************************************************
 
     init_run     :      0.23s CPU      0.55s WALL (      15 calls)
     electrons    :     35.94s CPU     37.11s WALL (      15 calls)

     Called by init_run:
     wfcinit      :      0.00s CPU      0.05s WALL (      15 calls)
     potinit      :      0.02s CPU      0.12s WALL (      15 calls)
     hinit0       :      0.11s CPU      0.17s WALL (      15 calls)

     Called by electrons:
     c_bands      :     35.93s CPU     37.11s WALL (      15 calls)
     v_of_rho     :      0.01s CPU      0.01s WALL (      16 calls)

     Called by c_bands:
     init_us_2    :      3.26s CPU      3.44s WALL (   62434 calls)
     init_us_2:cp :      3.11s CPU      3.31s WALL (   62434 calls)
     cegterg      :     21.63s CPU     22.46s WALL (    2102 calls)

     Called by *egterg:
     cdiaghg      :      1.83s CPU      1.92s WALL (   30200 calls)
     h_psi        :    346.09s CPU    363.62s WALL (  642211 calls)
     g_psi        :      0.13s CPU      0.14s WALL (   28098 calls)

     Called by h_psi:
     h_psi:calbec :     24.00s CPU     25.19s WALL (  642211 calls)
     vloc_psi     :    303.14s CPU    318.52s WALL (  642211 calls)
     add_vuspsi   :     13.61s CPU     14.51s WALL (  642211 calls)

     General routines
     calbec       :     38.20s CPU     40.49s WALL ( 1288113 calls)
     fft          :      0.58s CPU      0.61s WALL (    3677 calls)
     ffts         :      4.93s CPU      4.98s WALL (    6846 calls)
     fftw         :    339.70s CPU    356.62s WALL ( 5361012 calls)
     davcio       :      2.48s CPU     14.36s WALL (  266621 calls)
 
     Parallel routines
 
     PHONON       :  16m 4.72s CPU  21m37.68s WALL

     INITIALIZATION: 
     phq_setup    :      0.03s CPU      1.07s WALL (      16 calls)
     phq_init     :      2.20s CPU      4.23s WALL (      16 calls)
 
     phq_init     :      2.20s CPU      4.23s WALL (      16 calls)
     set_drhoc    :      0.51s CPU      0.52s WALL (      48 calls)
     init_vloc    :      0.03s CPU      0.03s WALL (      16 calls)
     init_us_1    :      0.03s CPU      0.03s WALL (      16 calls)
     init_us_2    :      3.26s CPU      3.44s WALL (   62434 calls)
 
     DYNAMICAL MATRIX:
     dynmat0      :      1.60s CPU      3.62s WALL (      16 calls)
     phqscf       :    911.19s CPU   1188.49s WALL (      16 calls)
     dynmatrix    :      4.07s CPU      5.38s WALL (      16 calls)
 
     phqscf       :    911.19s CPU   1188.49s WALL (      16 calls)
     solve_linter :    909.31s CPU   1179.77s WALL (      76 calls)
     drhodv       :      1.80s CPU      1.94s WALL (      76 calls)
 
     dynmat0      :      1.60s CPU      3.62s WALL (      16 calls)
     dynmat_us    :      0.80s CPU      0.84s WALL (      16 calls)
     d2ionq       :      0.01s CPU      0.01s WALL (      16 calls)
     dynmatcc     :      0.35s CPU      0.36s WALL (      16 calls)
 
     dynmat_us    :      0.80s CPU      0.84s WALL (      16 calls)
 
     phqscf       :    911.19s CPU   1188.49s WALL (      16 calls)
     solve_linter :    909.31s CPU   1179.77s WALL (      76 calls)
 
     solve_linter :    909.31s CPU   1179.77s WALL (      76 calls)
     dvqpsi_us    :      9.38s CPU      9.68s WALL (    6390 calls)
     sth_kernel   :    658.54s CPU    692.25s WALL (     583 calls)
     apply_dpot_b :     25.33s CPU     26.71s WALL (   44035 calls)
     ortho        :      1.55s CPU      1.64s WALL (   50425 calls)
     cgsolve      :    369.97s CPU    389.10s WALL (   50425 calls)
     incdrhoscf   :     38.72s CPU     40.23s WALL (   50404 calls)
     dv_of_drho   :      0.25s CPU      0.25s WALL (     710 calls)
     mix_pot      :     15.74s CPU    183.52s WALL (     583 calls)
     psymdvscf    :      8.66s CPU      8.71s WALL (     578 calls)
 
     dvqpsi_us    :      9.38s CPU      9.68s WALL (    6390 calls)
     dvqpsi_us_on :      0.89s CPU      0.94s WALL (    6390 calls)
 
     cgsolve      :    369.97s CPU    389.10s WALL (   50425 calls)
     ch_psi       :    360.53s CPU    379.00s WALL (  609909 calls)
 
     ch_psi       :    360.53s CPU    379.00s WALL (  609909 calls)
     h_psi        :    346.09s CPU    363.62s WALL (  642211 calls)
     last         :     28.31s CPU     29.78s WALL (  609909 calls)
 
     h_psi        :    346.09s CPU    363.62s WALL (  642211 calls)
     add_vuspsi   :     13.61s CPU     14.51s WALL (  642211 calls)
 
     incdrhoscf   :     38.72s CPU     40.23s WALL (   50404 calls)
 
 
      General routines
     calbec       :     38.20s CPU     40.49s WALL ( 1288113 calls)
     fft          :      0.58s CPU      0.61s WALL (    3677 calls)
     ffts         :      4.93s CPU      4.98s WALL (    6846 calls)
     fftw         :    339.70s CPU    356.62s WALL ( 5361012 calls)
     davcio       :      2.48s CPU     14.36s WALL (  266621 calls)
     write_rec    :      1.63s CPU     76.27s WALL (     659 calls)
 
 
     PHONON       :  16m 4.72s CPU  21m37.68s WALL

 
   This run was terminated on:  10:41:14   6Jun2022            

=------------------------------------------------------------------------------=
   JOB DONE.
=------------------------------------------------------------------------------=
real 1301.57
user 20737.97
sys 506.63
