Module for gcc 10.2:
(GNU C/C++/FORTRAN compilers v10.2.0) - loaded.
Module for OpenMPI 4.1.0-gcc10.2-infiniband loaded.

     Program PWSCF v.7.0 starts on 11Feb2022 at  9: 5:39 

     This program is part of the open-source Quantum ESPRESSO suite
     for quantum simulation of materials; please cite
         "P. Giannozzi et al., J. Phys.:Condens. Matter 21 395502 (2009);
         "P. Giannozzi et al., J. Phys.:Condens. Matter 29 465901 (2017);
         "P. Giannozzi et al., J. Chem. Phys. 152 154105 (2020);
          URL http://www.quantum-espresso.org", 
     in publications or presentations arising from this work. More details at
     http://www.quantum-espresso.org/quote

     Parallel version (MPI), running on    32 processors

     MPI processes distributed on     2 nodes
     R & G space division:  proc/nbgrp/npool/nimage =      32
     60197 MiB available memory on the printing compute node when the environment starts

     Reading input from in_files/TaS2_bench_32.scf

     Current dimensions of program PWSCF are:
     Max number of different atomic species (ntypx) = 10
     Max number of k-points (npk) =  40000
     Max angular momentum in pseudopotentials (lmaxx) =  4

     Subspace diagonalization in iterative solution of the eigenvalue problem:
     a serial algorithm will be used


     Parallelization info
     --------------------
     sticks:   dense  smooth     PW     G-vecs:    dense   smooth      PW
     Min          34      17      5                 4118     1457     231
     Max          35      18      6                 4131     1472     246
     Sum        1099     559    163               132031    46753    7647

     Using Slab Decomposition



     bravais-lattice index     =            4
     lattice parameter (alat)  =       6.3117  a.u.
     unit-cell volume          =     977.9382 (a.u.)^3
     number of atoms/cell      =            3
     number of atomic types    =            2
     number of electrons       =        25.00
     number of Kohn-Sham states=           17
     kinetic-energy cutoff     =      50.0000  Ry
     charge density cutoff     =     400.0000  Ry
     scf convergence threshold =      1.0E-18
     mixing beta               =       0.7000
     number of iterations used =            8  plain     mixing
     Exchange-correlation=  SLA  PW   PBX  PBC
                           (   1   4   3   4   0   0   0)

     celldm(1)=   6.311685  celldm(2)=   0.000000  celldm(3)=   4.491018
     celldm(4)=   0.000000  celldm(5)=   0.000000  celldm(6)=   0.000000

     crystal axes: (cart. coord. in units of alat)
               a(1) = (   1.000000   0.000000   0.000000 )  
               a(2) = (  -0.500000   0.866025   0.000000 )  
               a(3) = (   0.000000   0.000000   4.491018 )  

     reciprocal axes: (cart. coord. in units 2 pi/alat)
               b(1) = (  1.000000  0.577350 -0.000000 )  
               b(2) = (  0.000000  1.154701  0.000000 )  
               b(3) = (  0.000000 -0.000000  0.222667 )  


     PseudoPot. # 1 for Ta read from file:
     ./pseudos/Ta_pbe_v1.uspp.F.UPF
     MD5 check sum: f8bbe9446314a3b8ea5d9f3e3836c939
     Pseudo is Ultrasoft + core correction, Zval = 13.0
     Generated by new atomic code, or converted to UPF format
     Using radial grid of  921 points,  7 beta functions with: 
                l(1) =   0
                l(2) =   0
                l(3) =   1
                l(4) =   1
                l(5) =   2
                l(6) =   2
                l(7) =   3
     Q(r) pseudized with  6 coefficients,  rinner =    1.300   1.300   1.300
                                                       1.300   1.300   1.300
                                                       1.300

     PseudoPot. # 2 for S  read from file:
     ./pseudos/s_pbe_v1.4.uspp.F.UPF
     MD5 check sum: 88d86576ff6df21479756cfb9bdac1df
     Pseudo is Ultrasoft + core correction, Zval =  6.0
     Generated by new atomic code, or converted to UPF format
     Using radial grid of  907 points,  6 beta functions with: 
                l(1) =   0
                l(2) =   0
                l(3) =   1
                l(4) =   1
                l(5) =   2
                l(6) =   2
     Q(r) pseudized with  8 coefficients,  rinner =    1.300   1.300   1.300
                                                       1.300   1.300

     atomic species   valence    mass     pseudopotential
        Ta            13.00   180.95000     Ta( 1.00)
        S              6.00    32.06000     S ( 1.00)

     12 Sym. Ops. (no inversion) found



   Cartesian axes

     site n.     atom                  positions (alat units)
         1           S   tau(   1) = (  -0.0000000   0.5773503   0.4680748  )
         2           Ta  tau(   2) = (   0.0000000   0.0000000   0.0000000  )
         3           S   tau(   3) = (  -0.0000000   0.5773503  -0.4680748  )

     number of k points=    19  Marzari-Vanderbilt smearing, width (Ry)=  0.0190
                       cart. coord. in units 2pi/alat
        k(    1) = (   0.0000000   0.0000000   0.0000000), wk =   0.0138889
        k(    2) = (   0.0000000   0.0962250   0.0000000), wk =   0.0833333
        k(    3) = (   0.0000000   0.1924501   0.0000000), wk =   0.0833333
        k(    4) = (   0.0000000   0.2886751   0.0000000), wk =   0.0833333
        k(    5) = (   0.0000000   0.3849002   0.0000000), wk =   0.0833333
        k(    6) = (   0.0000000   0.4811252   0.0000000), wk =   0.0833333
        k(    7) = (   0.0000000  -0.5773503   0.0000000), wk =   0.0416667
        k(    8) = (   0.0833333   0.1443376   0.0000000), wk =   0.0833333
        k(    9) = (   0.0833333   0.2405626   0.0000000), wk =   0.1666667
        k(   10) = (   0.0833333   0.3367877   0.0000000), wk =   0.1666667
        k(   11) = (   0.0833333   0.4330127   0.0000000), wk =   0.1666667
        k(   12) = (   0.0833333   0.5292377   0.0000000), wk =   0.1666667
        k(   13) = (   0.1666667   0.2886751   0.0000000), wk =   0.0833333
        k(   14) = (   0.1666667   0.3849002   0.0000000), wk =   0.1666667
        k(   15) = (   0.1666667   0.4811252   0.0000000), wk =   0.1666667
        k(   16) = (   0.1666667   0.5773503   0.0000000), wk =   0.0833333
        k(   17) = (   0.2500000   0.4330127   0.0000000), wk =   0.0833333
        k(   18) = (   0.2500000   0.5292377   0.0000000), wk =   0.1666667
        k(   19) = (   0.3333333   0.5773503   0.0000000), wk =   0.0277778

     Dense  grid:   132031 G-vectors     FFT dimensions: (  45,  45, 192)

     Smooth grid:    46753 G-vectors     FFT dimensions: (  30,  30, 128)

     Estimated max dynamical RAM per process >      32.08 MB

     Estimated total dynamical RAM >       1.00 GB
 ----2D----2D----2D----2D----2D----2D----2D----2D----2D----2D----2D----2D
  The code is running with the 2D cutoff
  Please refer to:
  Sohier, T., Calandra, M., & Mauri, F. (2017), 
  Density functional perturbation theory for gated two-dimensional heterostructures:
  Theoretical developments and application to flexural phonons in graphene.
  Physical Review B, 96(7), 75448. https://doi.org/10.1103/PhysRevB.96.075448
 ----2D----2D----2D----2D----2D----2D----2D----2D----2D----2D----2D----2D

     Initial potential from superposition of free atoms

     starting charge      24.9988, renormalised to      25.0000

     negative rho (up, down):  9.496E-02 0.000E+00
     Starting wfcs are   21 randomized atomic wfcs

     total cpu time spent up to now is        2.6 secs

     Self-consistent Calculation

     iteration #  1     ecut=    50.00 Ry     beta= 0.70
     Davidson diagonalization with overlap
     ethr =  1.00E-02,  avg # of iterations =  3.0

     Threshold (ethr) on eigenvalues was too large:
     Diagonalizing with lowered threshold

     Davidson diagonalization with overlap
     ethr =  5.47E-04,  avg # of iterations =  3.2

     negative rho (up, down):  9.869E-02 0.000E+00

     total cpu time spent up to now is        9.3 secs

     total energy              =    -190.25413561 Ry
     estimated scf accuracy    <       0.14610377 Ry

     iteration #  2     ecut=    50.00 Ry     beta= 0.70
     Davidson diagonalization with overlap
     ethr =  5.84E-04,  avg # of iterations =  2.1

     negative rho (up, down):  9.948E-02 0.000E+00

     total cpu time spent up to now is       12.9 secs

     total energy              =    -190.21505006 Ry
     estimated scf accuracy    <       0.40840866 Ry

     iteration #  3     ecut=    50.00 Ry     beta= 0.70
     Davidson diagonalization with overlap
     ethr =  5.84E-04,  avg # of iterations =  2.0

     negative rho (up, down):  1.002E-01 0.000E+00

     total cpu time spent up to now is       16.2 secs

     total energy              =    -190.30418689 Ry
     estimated scf accuracy    <       0.05401249 Ry

     iteration #  4     ecut=    50.00 Ry     beta= 0.70
     Davidson diagonalization with overlap
     ethr =  2.16E-04,  avg # of iterations =  1.9

     negative rho (up, down):  1.010E-01 0.000E+00

     total cpu time spent up to now is       19.1 secs

     total energy              =    -190.31077041 Ry
     estimated scf accuracy    <       0.00136439 Ry

     iteration #  5     ecut=    50.00 Ry     beta= 0.70
     Davidson diagonalization with overlap
     ethr =  5.46E-06,  avg # of iterations =  4.6

     negative rho (up, down):  1.010E-01 0.000E+00

     total cpu time spent up to now is       23.3 secs

     total energy              =    -190.31139889 Ry
     estimated scf accuracy    <       0.00068964 Ry

     iteration #  6     ecut=    50.00 Ry     beta= 0.70
     Davidson diagonalization with overlap
     ethr =  2.76E-06,  avg # of iterations =  2.0

     negative rho (up, down):  1.011E-01 0.000E+00

     total cpu time spent up to now is       26.3 secs

     total energy              =    -190.31143409 Ry
     estimated scf accuracy    <       0.00006281 Ry

     iteration #  7     ecut=    50.00 Ry     beta= 0.70
     Davidson diagonalization with overlap
     ethr =  2.51E-07,  avg # of iterations =  3.5

     negative rho (up, down):  1.011E-01 0.000E+00

     total cpu time spent up to now is       29.9 secs

     total energy              =    -190.31145901 Ry
     estimated scf accuracy    <       0.00000901 Ry

     iteration #  8     ecut=    50.00 Ry     beta= 0.70
     Davidson diagonalization with overlap
     ethr =  3.61E-08,  avg # of iterations =  2.5

     negative rho (up, down):  1.011E-01 0.000E+00

     total cpu time spent up to now is       33.3 secs

     total energy              =    -190.31146158 Ry
     estimated scf accuracy    <       0.00000006 Ry

     iteration #  9     ecut=    50.00 Ry     beta= 0.70
     Davidson diagonalization with overlap
     ethr =  2.21E-10,  avg # of iterations =  7.3

     negative rho (up, down):  1.011E-01 0.000E+00

     total cpu time spent up to now is       39.9 secs

     total energy              =    -190.31146172 Ry
     estimated scf accuracy    <       0.00000054 Ry

     iteration # 10     ecut=    50.00 Ry     beta= 0.70
     Davidson diagonalization with overlap
     ethr =  2.21E-10,  avg # of iterations =  3.0

     negative rho (up, down):  1.011E-01 0.000E+00

     total cpu time spent up to now is       43.6 secs

     total energy              =    -190.31146180 Ry
     estimated scf accuracy    <          3.8E-09 Ry

     iteration # 11     ecut=    50.00 Ry     beta= 0.70
     Davidson diagonalization with overlap
     ethr =  1.54E-11,  avg # of iterations =  4.0

     negative rho (up, down):  1.011E-01 0.000E+00

     total cpu time spent up to now is       47.7 secs

     total energy              =    -190.31146179 Ry
     estimated scf accuracy    <       0.00000005 Ry

     iteration # 12     ecut=    50.00 Ry     beta= 0.70
     Davidson diagonalization with overlap
     ethr =  1.54E-11,  avg # of iterations =  3.5

     negative rho (up, down):  1.011E-01 0.000E+00

     total cpu time spent up to now is       51.6 secs

     total energy              =    -190.31146180 Ry
     estimated scf accuracy    <          3.5E-10 Ry

     iteration # 13     ecut=    50.00 Ry     beta= 0.70
     Davidson diagonalization with overlap
     ethr =  1.41E-12,  avg # of iterations =  3.1

     negative rho (up, down):  1.011E-01 0.000E+00

     total cpu time spent up to now is       55.0 secs

     total energy              =    -190.31146180 Ry
     estimated scf accuracy    <          4.6E-11 Ry

     iteration # 14     ecut=    50.00 Ry     beta= 0.70
     Davidson diagonalization with overlap
     ethr =  1.82E-13,  avg # of iterations =  2.8

     negative rho (up, down):  1.011E-01 0.000E+00

     total cpu time spent up to now is       58.2 secs

     total energy              =    -190.31146180 Ry
     estimated scf accuracy    <          2.7E-11 Ry

     iteration # 15     ecut=    50.00 Ry     beta= 0.70
     Davidson diagonalization with overlap
     ethr =  1.08E-13,  avg # of iterations =  2.1

     negative rho (up, down):  1.011E-01 0.000E+00

     total cpu time spent up to now is       61.4 secs

     total energy              =    -190.31146180 Ry
     estimated scf accuracy    <          7.6E-14 Ry

     iteration # 16     ecut=    50.00 Ry     beta= 0.70
     Davidson diagonalization with overlap
     ethr =  1.00E-13,  avg # of iterations =  1.0

     negative rho (up, down):  1.011E-01 0.000E+00

     total cpu time spent up to now is       64.2 secs

     total energy              =    -190.31146180 Ry
     estimated scf accuracy    <          2.4E-13 Ry

     iteration # 17     ecut=    50.00 Ry     beta= 0.70
     Davidson diagonalization with overlap
     ethr =  1.00E-13,  avg # of iterations =  1.0

     negative rho (up, down):  1.011E-01 0.000E+00

     total cpu time spent up to now is       67.0 secs

     total energy              =    -190.31146180 Ry
     estimated scf accuracy    <          4.3E-13 Ry

     iteration # 18     ecut=    50.00 Ry     beta= 0.70
     Davidson diagonalization with overlap
     ethr =  1.00E-13,  avg # of iterations =  1.0

     negative rho (up, down):  1.011E-01 0.000E+00

     total cpu time spent up to now is       69.8 secs

     total energy              =    -190.31146180 Ry
     estimated scf accuracy    <          1.2E-13 Ry

     iteration # 19     ecut=    50.00 Ry     beta= 0.70
     Davidson diagonalization with overlap
     ethr =  1.00E-13,  avg # of iterations =  1.0

     negative rho (up, down):  1.011E-01 0.000E+00

     total cpu time spent up to now is       72.6 secs

     total energy              =    -190.31146180 Ry
     estimated scf accuracy    <          1.5E-14 Ry

     iteration # 20     ecut=    50.00 Ry     beta= 0.70
     Davidson diagonalization with overlap
     ethr =  1.00E-13,  avg # of iterations =  1.0

     negative rho (up, down):  1.011E-01 0.000E+00

     total cpu time spent up to now is       75.4 secs

     total energy              =    -190.31146180 Ry
     estimated scf accuracy    <          2.2E-15 Ry

     iteration # 21     ecut=    50.00 Ry     beta= 0.70
     Davidson diagonalization with overlap
     ethr =  1.00E-13,  avg # of iterations =  1.0

     negative rho (up, down):  1.011E-01 0.000E+00

     total cpu time spent up to now is       78.3 secs

     total energy              =    -190.31146180 Ry
     estimated scf accuracy    <          6.3E-16 Ry

     iteration # 22     ecut=    50.00 Ry     beta= 0.70
     Davidson diagonalization with overlap
     ethr =  1.00E-13,  avg # of iterations =  1.0

     negative rho (up, down):  1.011E-01 0.000E+00

     total cpu time spent up to now is       81.1 secs

     total energy              =    -190.31146180 Ry
     estimated scf accuracy    <          5.3E-16 Ry

     iteration # 23     ecut=    50.00 Ry     beta= 0.70
     Davidson diagonalization with overlap
     ethr =  1.00E-13,  avg # of iterations =  1.0

     negative rho (up, down):  1.011E-01 0.000E+00

     total cpu time spent up to now is       83.9 secs

     total energy              =    -190.31146180 Ry
     estimated scf accuracy    <          2.5E-16 Ry

     iteration # 24     ecut=    50.00 Ry     beta= 0.70
     Davidson diagonalization with overlap
     ethr =  1.00E-13,  avg # of iterations =  1.0

     negative rho (up, down):  1.011E-01 0.000E+00

     total cpu time spent up to now is       86.7 secs

     total energy              =    -190.31146180 Ry
     estimated scf accuracy    <          3.8E-16 Ry

     iteration # 25     ecut=    50.00 Ry     beta= 0.70
     Davidson diagonalization with overlap
     ethr =  1.00E-13,  avg # of iterations =  1.0

     negative rho (up, down):  1.011E-01 0.000E+00

     total cpu time spent up to now is       89.5 secs

     total energy              =    -190.31146180 Ry
     estimated scf accuracy    <          6.6E-16 Ry

     iteration # 26     ecut=    50.00 Ry     beta= 0.70
     Davidson diagonalization with overlap
     ethr =  1.00E-13,  avg # of iterations =  1.0

     negative rho (up, down):  1.011E-01 0.000E+00

     total cpu time spent up to now is       92.4 secs

     total energy              =    -190.31146180 Ry
     estimated scf accuracy    <          3.5E-17 Ry

     iteration # 27     ecut=    50.00 Ry     beta= 0.70
     Davidson diagonalization with overlap
     ethr =  1.00E-13,  avg # of iterations =  1.0

     negative rho (up, down):  1.011E-01 0.000E+00

     total cpu time spent up to now is       95.2 secs

     total energy              =    -190.31146180 Ry
     estimated scf accuracy    <          3.6E-16 Ry

     iteration # 28     ecut=    50.00 Ry     beta= 0.70
     Davidson diagonalization with overlap
     ethr =  1.00E-13,  avg # of iterations =  1.0

     negative rho (up, down):  1.011E-01 0.000E+00

     total cpu time spent up to now is       98.0 secs

     total energy              =    -190.31146180 Ry
     estimated scf accuracy    <          4.0E-17 Ry

     iteration # 29     ecut=    50.00 Ry     beta= 0.70
     Davidson diagonalization with overlap
     ethr =  1.00E-13,  avg # of iterations =  1.0

     negative rho (up, down):  1.011E-01 0.000E+00

     total cpu time spent up to now is      100.8 secs

     total energy              =    -190.31146180 Ry
     estimated scf accuracy    <          5.9E-17 Ry

     iteration # 30     ecut=    50.00 Ry     beta= 0.70
     Davidson diagonalization with overlap
     ethr =  1.00E-13,  avg # of iterations =  1.0

     negative rho (up, down):  1.011E-01 0.000E+00

     total cpu time spent up to now is      103.6 secs

     total energy              =    -190.31146180 Ry
     estimated scf accuracy    <          4.3E-17 Ry

     iteration # 31     ecut=    50.00 Ry     beta= 0.70
     Davidson diagonalization with overlap
     ethr =  1.00E-13,  avg # of iterations =  1.0

     negative rho (up, down):  1.011E-01 0.000E+00

     total cpu time spent up to now is      106.5 secs

     total energy              =    -190.31146180 Ry
     estimated scf accuracy    <          2.8E-17 Ry

     iteration # 32     ecut=    50.00 Ry     beta= 0.70
     Davidson diagonalization with overlap
     ethr =  1.00E-13,  avg # of iterations =  1.0

     negative rho (up, down):  1.011E-01 0.000E+00

     total cpu time spent up to now is      109.3 secs

     total energy              =    -190.31146180 Ry
     estimated scf accuracy    <          1.3E-18 Ry

     iteration # 33     ecut=    50.00 Ry     beta= 0.70
     Davidson diagonalization with overlap
     ethr =  1.00E-13,  avg # of iterations =  1.0

     negative rho (up, down):  1.011E-01 0.000E+00

     total cpu time spent up to now is      112.1 secs

     End of self-consistent calculation

          k = 0.0000 0.0000 0.0000 (  5817 PWs)   bands (ev):

   -73.9866 -40.4638 -40.3517 -40.3517 -19.9074 -18.3590 -11.4487  -8.3419
    -8.3419  -7.4335  -7.2234  -7.2234  -4.8693  -2.6749  -2.6749  -2.5791
    -2.5791

          k = 0.0000 0.0962 0.0000 (  5775 PWs)   bands (ev):

   -73.9857 -40.4601 -40.3716 -40.3562 -19.8115 -18.3302 -11.3310  -8.6388
    -8.2559  -7.8503  -7.3788  -7.0067  -4.9728  -2.7341  -2.7254  -2.6419
    -2.4677

          k = 0.0000 0.1925 0.0000 (  5822 PWs)   bands (ev):

   -73.9833 -40.4499 -40.4257 -40.3687 -19.5403 -18.2488 -11.0109  -9.3166
    -8.4563  -8.0228  -7.7458  -6.9878  -5.3384  -2.8976  -2.7637  -2.6454
    -1.9738

          k = 0.0000 0.2887 0.0000 (  5838 PWs)   bands (ev):

   -73.9800 -40.4987 -40.4360 -40.3857 -19.1439 -18.1305 -10.6784  -9.9628
    -9.1026  -8.1577  -7.7138  -7.1504  -5.8767  -2.8095  -2.8036  -2.2930
    -1.4290

          k = 0.0000 0.3849 0.0000 (  5820 PWs)   bands (ev):

   -73.9768 -40.5707 -40.4219 -40.4026 -18.7079 -18.0029 -10.9925  -9.9085
    -9.6927  -8.5044  -7.4285  -7.3185  -6.2499  -2.6880  -2.5228  -1.8597
    -1.0047

          k = 0.0000 0.4811 0.0000 (  5838 PWs)   bands (ev):

   -73.9744 -40.6227 -40.4150 -40.4117 -18.3537 -17.9024 -11.4404 -10.1089
    -9.7285  -8.7294  -7.4172  -7.2443  -6.2591  -2.4523  -2.1801  -1.5739
    -0.7607

          k = 0.0000-0.5774 0.0000 (  5864 PWs)   bands (ev):

   -73.9735 -40.6416 -40.4195 -40.4079 -18.2144 -17.8638 -11.6138 -10.2592
    -9.6913  -8.8069  -7.4473  -7.1836  -6.1685  -2.3229  -1.9604  -1.4913
    -0.6843

          k = 0.0833 0.1443 0.0000 (  5793 PWs)   bands (ev):

   -73.9841 -40.4531 -40.4076 -40.3658 -19.6278 -18.2750 -11.1093  -9.1128
    -8.2447  -8.1089  -7.7405  -6.8976  -5.2075  -2.9050  -2.7449  -2.7150
    -2.0787

          k = 0.0833 0.2406 0.0000 (  5825 PWs)   bands (ev):

   -73.9812 -40.4686 -40.4411 -40.3831 -19.2931 -18.1744 -10.7397  -9.7691
    -8.7910  -8.2255  -7.8915  -6.9351  -5.6537  -3.0410  -2.6725  -2.5627
    -1.5128

          k = 0.0833 0.3368 0.0000 (  5837 PWs)   bands (ev):

   -73.9780 -40.5379 -40.4271 -40.4032 -18.8739 -18.0494 -10.6990 -10.0285
    -9.4379  -8.5443  -7.7223  -7.1214  -6.0621  -2.9684  -2.4775  -2.1533
    -1.0378

          k = 0.0833 0.4330 0.0000 (  5849 PWs)   bands (ev):

   -73.9751 -40.5972 -40.4205 -40.4150 -18.4726 -17.9320 -11.1707  -9.9880
    -9.7735  -8.7211  -7.6508  -7.3172  -6.1544  -2.6652  -2.2541  -1.7032
    -0.8266

          k = 0.0833 0.5292 0.0000 (  5844 PWs)   bands (ev):

   -73.9735 -40.6311 -40.4305 -40.4079 -18.2189 -17.8596 -11.4757 -10.2974
    -9.6757  -8.8001  -7.6037  -7.4316  -6.0244  -2.4409  -1.9812  -1.3677
    -0.8805

          k = 0.1667 0.2887 0.0000 (  5825 PWs)   bands (ev):

   -73.9784 -40.5212 -40.4290 -40.4081 -18.9334 -18.0654 -10.5124 -10.1098
    -9.2744  -8.6960  -7.9160  -6.9576  -5.9517  -3.1203  -2.4310  -2.3519
    -0.9773

          k = 0.1667 0.3849 0.0000 (  5838 PWs)   bands (ev):

   -73.9756 -40.5707 -40.4358 -40.4168 -18.5414 -17.9461 -10.8419  -9.9061
    -9.8324  -8.8183  -8.1480  -7.1516  -6.0282  -2.8895  -2.2280  -1.9671
    -0.6654

          k = 0.1667 0.4811 0.0000 (  5849 PWs)   bands (ev):

   -73.9735 -40.6056 -40.4569 -40.4080 -18.2279 -17.8510 -11.1348 -10.3687
    -9.6405  -8.8014  -8.3469  -7.3818  -5.8662  -2.6939  -1.9896  -1.5607
    -0.6780

          k = 0.1667 0.5774 0.0000 (  5841 PWs)   bands (ev):

   -73.9727 -40.6181 -40.4647 -40.4047 -18.1062 -17.8143 -11.2408 -10.5348
    -9.6184  -8.7741  -8.3926  -7.4861  -5.7233  -2.7845  -1.6829  -1.3329
    -0.8039

          k = 0.2500 0.4330 0.0000 (  5857 PWs)   bands (ev):

   -73.9735 -40.5885 -40.4743 -40.4080 -18.2324 -17.8467 -10.9058 -10.4022
    -9.6159  -8.8084  -8.7465  -7.3484  -5.8094  -2.8210  -1.9873  -1.7341
    -0.4389

          k = 0.2500 0.5292 0.0000 (  5857 PWs)   bands (ev):

   -73.9723 -40.5922 -40.5032 -40.4028 -18.0437 -17.7843 -10.8602 -10.7000
    -9.5869  -9.1139  -8.7036  -7.5559  -5.4892  -3.1938  -1.6046  -1.4882
    -0.3228

          k = 0.3333 0.5774 0.0000 (  5919 PWs)   bands (ev):

   -73.9719 -40.5710 -40.5366 -40.4010 -17.9753 -17.7581 -10.8280 -10.5707
    -9.7862  -9.3715  -8.6214  -7.6639  -5.2277  -3.5695  -1.6605  -1.2043
    -0.1102

     the Fermi energy is    -5.8795 ev

!    total energy              =    -190.31146180 Ry
     estimated scf accuracy    <          5.6E-19 Ry
     smearing contrib. (-TS)   =      -0.00090630 Ry
     internal energy E=F+TS    =    -190.31055550 Ry

     The total energy is F=E-TS. E is the sum of the following terms:
     one-electron contribution =   -1044.58140990 Ry
     hartree contribution      =     517.53275925 Ry
     xc contribution           =     -59.14320104 Ry
     ewald contribution        =     395.88129619 Ry

     convergence has been achieved in  33 iterations

     Writing all to output data dir /fastscratch/tsievers/QE_TMP_DIR/TaS2_bench_nprocs_32.save/

     init_run     :      1.60s CPU      2.20s WALL (       1 calls)
     electrons    :     69.20s CPU    109.55s WALL (       1 calls)

     Called by init_run:
     wfcinit      :      0.82s CPU      1.27s WALL (       1 calls)
     potinit      :      0.24s CPU      0.26s WALL (       1 calls)
     hinit0       :      0.46s CPU      0.54s WALL (       1 calls)

     Called by electrons:
     c_bands      :     52.20s CPU     84.02s WALL (      34 calls)
     sum_band     :     12.64s CPU     19.62s WALL (      34 calls)
     v_of_rho     :      2.00s CPU      2.91s WALL (      34 calls)
     newd         :      1.73s CPU      1.84s WALL (      34 calls)
     mix_rho      :      0.46s CPU      0.79s WALL (      34 calls)

     Called by c_bands:
     init_us_2    :      0.20s CPU      0.28s WALL (    1311 calls)
     init_us_2:cp :      0.20s CPU      0.28s WALL (    1311 calls)
     cegterg      :     51.54s CPU     83.15s WALL (     646 calls)

     Called by *egterg:
     cdiaghg      :      0.60s CPU      0.79s WALL (    1929 calls)
     h_psi        :     48.64s CPU     79.46s WALL (    1967 calls)
     s_psi        :      0.39s CPU      0.56s WALL (    1967 calls)
     g_psi        :      0.02s CPU      0.02s WALL (    1302 calls)

     Called by h_psi:
     h_psi:calbec :      1.68s CPU      2.67s WALL (    1967 calls)
     vloc_psi     :     46.56s CPU     76.22s WALL (    1967 calls)
     add_vuspsi   :      0.37s CPU      0.55s WALL (    1967 calls)

     General routines
     calbec       :      2.27s CPU      3.63s WALL (    2613 calls)
     fft          :      2.48s CPU      3.76s WALL (     441 calls)
     ffts         :      0.20s CPU      0.29s WALL (      68 calls)
     fftw         :     55.93s CPU     91.59s WALL (   63884 calls)
     interpolate  :      0.30s CPU      0.45s WALL (      34 calls)

     Parallel routines

     PWSCF        :   1m12.12s CPU   1m54.27s WALL


   This run was terminated on:   9: 7:33  11Feb2022            

=------------------------------------------------------------------------------=
   JOB DONE.
=------------------------------------------------------------------------------=
