Module for intel-oneAPI 2021.4 loaded.
 
:: initializing oneAPI environment ...
   2808867: BASH_VERSION = 4.4.20(1)-release
:: advisor -- latest
:: ccl -- latest
:: clck -- latest
:: compiler -- latest
:: dal -- latest
:: debugger -- latest
:: dev-utilities -- latest
:: dnnl -- latest
:: dpcpp-ct -- latest
:: dpl -- latest
:: inspector -- latest
:: intelpython -- latest
:: ipp -- latest
:: ippcp -- latest
:: ipp -- latest
:: itac -- latest
:: LPOT -- latest
:: mkl -- latest
:: modelzoo -- latest
:: mpi -- latest
:: pytorch -- latest
:: tbb -- latest
:: tensorflow -- latest
:: vpl -- latest
:: vtune -- latest
:: oneAPI environment initialized ::
 

     Program PWSCF v.7.0 starts on  3Jun2022 at 13:22:22 

     This program is part of the open-source Quantum ESPRESSO suite
     for quantum simulation of materials; please cite
         "P. Giannozzi et al., J. Phys.:Condens. Matter 21 395502 (2009);
         "P. Giannozzi et al., J. Phys.:Condens. Matter 29 465901 (2017);
         "P. Giannozzi et al., J. Chem. Phys. 152 154105 (2020);
          URL http://www.quantum-espresso.org", 
     in publications or presentations arising from this work. More details at
     http://www.quantum-espresso.org/quote

     Parallel version (MPI), running on    18 processors

     MPI processes distributed on     1 nodes
     R & G space division:  proc/nbgrp/npool/nimage =      18
     15746 MiB available memory on the printing compute node when the environment starts
 
     Reading input from in_files/si_ph_bench_poolsize_18_n_procs_18_0.scf

     Current dimensions of program PWSCF are:
     Max number of different atomic species (ntypx) = 10
     Max number of k-points (npk) =  40000
     Max angular momentum in pseudopotentials (lmaxx) =  4

     Subspace diagonalization in iterative solution of the eigenvalue problem:
     a serial algorithm will be used

 
     Parallelization info
     --------------------
     sticks:   dense  smooth     PW     G-vecs:    dense   smooth      PW
     Min          55      55     16                 1158     1158     191
     Max          56      56     17                 1161     1161     195
     Sum        1003    1003    301                20875    20875    3479
 
     Using Slab Decomposition
 


     bravais-lattice index     =            2
     lattice parameter (alat)  =      10.1899  a.u.
     unit-cell volume          =     264.5151 (a.u.)^3
     number of atoms/cell      =            2
     number of atomic types    =            1
     number of electrons       =         8.00
     number of Kohn-Sham states=            4
     kinetic-energy cutoff     =      70.0000  Ry
     charge density cutoff     =     280.0000  Ry
     scf convergence threshold =      1.0E-10
     mixing beta               =       0.7000
     number of iterations used =            8  plain     mixing
     Exchange-correlation= SLA  PW   NOGX NOGC
                           (   1   4   0   0   0   0   0)

     celldm(1)=  10.189905  celldm(2)=   0.000000  celldm(3)=   0.000000
     celldm(4)=   0.000000  celldm(5)=   0.000000  celldm(6)=   0.000000

     crystal axes: (cart. coord. in units of alat)
               a(1) = (  -0.500000   0.000000   0.500000 )  
               a(2) = (   0.000000   0.500000   0.500000 )  
               a(3) = (  -0.500000   0.500000   0.000000 )  

     reciprocal axes: (cart. coord. in units 2 pi/alat)
               b(1) = ( -1.000000 -1.000000  1.000000 )  
               b(2) = (  1.000000  1.000000  1.000000 )  
               b(3) = ( -1.000000  1.000000 -1.000000 )  


     PseudoPot. # 1 for Si read from file:
     ./pseudos/Si.nc.UPF
     MD5 check sum: 9e2d726316af3d4752eea8ab0afbb951
     Pseudo is Norm-conserving + core correction, Zval =  4.0
     Generated using ONCVPSP code by D. R. Hamann
     Using radial grid of 1510 points,  6 beta functions with: 
                l(1) =   0
                l(2) =   0
                l(3) =   1
                l(4) =   1
                l(5) =   2
                l(6) =   2

     atomic species   valence    mass     pseudopotential
        Si             4.00    28.08550     Si( 1.00)

     48 Sym. Ops., with inversion, found (24 have fractional translation)



   Cartesian axes

     site n.     atom                  positions (alat units)
         1           Si  tau(   1) = (   0.0000000   0.0000000   0.0000000  )
         2           Si  tau(   2) = (  -0.2500000   0.2500000   0.2500000  )

     number of k points=    28
                       cart. coord. in units 2pi/alat
        k(    1) = (  -0.0833333   0.0833333   0.0833333), wk =   0.0185185
        k(    2) = (  -0.2500000   0.2500000  -0.0833333), wk =   0.0555556
        k(    3) = (  -0.4166667   0.4166667  -0.2500000), wk =   0.0555556
        k(    4) = (   0.4166667  -0.4166667   0.5833333), wk =   0.0555556
        k(    5) = (   0.2500000  -0.2500000   0.4166667), wk =   0.0555556
        k(    6) = (   0.0833333  -0.0833333   0.2500000), wk =   0.0555556
        k(    7) = (  -0.0833333   0.4166667   0.0833333), wk =   0.0555556
        k(    8) = (  -0.2500000   0.5833333  -0.0833333), wk =   0.1111111
        k(    9) = (   0.5833333  -0.2500000   0.7500000), wk =   0.1111111
        k(   10) = (   0.4166667  -0.0833333   0.5833333), wk =   0.1111111
        k(   11) = (   0.2500000   0.0833333   0.4166667), wk =   0.1111111
        k(   12) = (  -0.0833333   0.7500000   0.0833333), wk =   0.0555556
        k(   13) = (   0.7500000  -0.0833333   0.9166667), wk =   0.1111111
        k(   14) = (   0.5833333   0.0833333   0.7500000), wk =   0.1111111
        k(   15) = (   0.4166667   0.2500000   0.5833333), wk =   0.1111111
        k(   16) = (  -0.0833333  -0.9166667   0.0833333), wk =   0.0555556
        k(   17) = (  -0.2500000  -0.7500000  -0.0833333), wk =   0.1111111
        k(   18) = (  -0.0833333  -0.5833333   0.0833333), wk =   0.0555556
        k(   19) = (  -0.2500000   0.2500000   0.2500000), wk =   0.0185185
        k(   20) = (  -0.4166667   0.4166667   0.0833333), wk =   0.0555556
        k(   21) = (   0.4166667  -0.4166667   0.9166667), wk =   0.0555556
        k(   22) = (   0.2500000  -0.2500000   0.7500000), wk =   0.0555556
        k(   23) = (  -0.2500000   0.5833333   0.2500000), wk =   0.0555556
        k(   24) = (   0.5833333  -0.2500000   1.0833333), wk =   0.1111111
        k(   25) = (   0.4166667  -0.0833333   0.9166667), wk =   0.1111111
        k(   26) = (  -0.2500000  -1.0833333   0.2500000), wk =   0.0555556
        k(   27) = (  -0.4166667   0.4166667   0.4166667), wk =   0.0185185
        k(   28) = (   0.4166667  -0.4166667   1.2500000), wk =   0.0555556

     Dense  grid:    20875 G-vectors     FFT dimensions: (  40,  40,  40)

     Estimated max dynamical RAM per process >       2.53 MB

     Estimated total dynamical RAM >      45.59 MB

     Initial potential from superposition of free atoms

     starting charge       7.9989, renormalised to       8.0000
     Starting wfcs are    8 randomized atomic wfcs

     total cpu time spent up to now is        0.2 secs

     Self-consistent Calculation

     iteration #  1     ecut=    70.00 Ry     beta= 0.70
     Davidson diagonalization with overlap
     ethr =  1.00E-02,  avg # of iterations =  2.0

     Threshold (ethr) on eigenvalues was too large:
     Diagonalizing with lowered threshold

     Davidson diagonalization with overlap
     ethr =  6.14E-04,  avg # of iterations =  2.0

     total cpu time spent up to now is        0.3 secs

     total energy              =     -17.04763142 Ry
     estimated scf accuracy    <       0.05801898 Ry

     iteration #  2     ecut=    70.00 Ry     beta= 0.70
     Davidson diagonalization with overlap
     ethr =  7.25E-04,  avg # of iterations =  1.0

     total cpu time spent up to now is        0.4 secs

     total energy              =     -17.04995425 Ry
     estimated scf accuracy    <       0.00249093 Ry

     iteration #  3     ecut=    70.00 Ry     beta= 0.70
     Davidson diagonalization with overlap
     ethr =  3.11E-05,  avg # of iterations =  3.0

     total cpu time spent up to now is        0.5 secs

     total energy              =     -17.05082315 Ry
     estimated scf accuracy    <       0.00009482 Ry

     iteration #  4     ecut=    70.00 Ry     beta= 0.70
     Davidson diagonalization with overlap
     ethr =  1.19E-06,  avg # of iterations =  4.5

     total cpu time spent up to now is        0.6 secs

     total energy              =     -17.05089858 Ry
     estimated scf accuracy    <       0.00000242 Ry

     iteration #  5     ecut=    70.00 Ry     beta= 0.70
     Davidson diagonalization with overlap
     ethr =  3.02E-08,  avg # of iterations =  4.8

     total cpu time spent up to now is        0.7 secs

     total energy              =     -17.05090101 Ry
     estimated scf accuracy    <       0.00000012 Ry

     iteration #  6     ecut=    70.00 Ry     beta= 0.70
     Davidson diagonalization with overlap
     ethr =  1.45E-09,  avg # of iterations =  3.3

     total cpu time spent up to now is        0.8 secs

     total energy              =     -17.05090106 Ry
     estimated scf accuracy    <       0.00000002 Ry

     iteration #  7     ecut=    70.00 Ry     beta= 0.70
     Davidson diagonalization with overlap
     ethr =  1.88E-10,  avg # of iterations =  3.1

     total cpu time spent up to now is        0.9 secs

     total energy              =     -17.05090107 Ry
     estimated scf accuracy    <          1.7E-10 Ry

     iteration #  8     ecut=    70.00 Ry     beta= 0.70
     Davidson diagonalization with overlap
     ethr =  2.16E-12,  avg # of iterations =  5.8

     total cpu time spent up to now is        1.1 secs

     total energy              =     -17.05090107 Ry
     estimated scf accuracy    <          1.1E-10 Ry

     iteration #  9     ecut=    70.00 Ry     beta= 0.70
     Davidson diagonalization with overlap
     ethr =  1.42E-12,  avg # of iterations =  2.0

     total cpu time spent up to now is        1.2 secs

     End of self-consistent calculation

          k =-0.0833 0.0833 0.0833 (  2667 PWs)   bands (ev):

    -5.7561   5.3866   6.1106   6.1106

          k =-0.2500 0.2500-0.0833 (  2621 PWs)   bands (ev):

    -5.2692   3.2786   4.8359   5.9020

          k =-0.4167 0.4167-0.2500 (  2618 PWs)   bands (ev):

    -4.1491   0.4558   4.3704   5.2525

          k = 0.4167-0.4167 0.5833 (  2604 PWs)   bands (ev):

    -3.4239  -0.7236   4.4440   4.8611

          k = 0.2500-0.2500 0.4167 (  2618 PWs)   bands (ev):

    -4.5726   1.3222   4.9163   4.9542

          k = 0.0833-0.0833 0.2500 (  2643 PWs)   bands (ev):

    -5.5104   4.3092   5.4446   5.6431

          k =-0.0833 0.4167 0.0833 (  2627 PWs)   bands (ev):

    -5.0231   3.1094   4.6844   4.6977

          k =-0.2500 0.5833-0.0833 (  2613 PWs)   bands (ev):

    -4.0918   1.2428   3.3199   4.3008

          k = 0.5833-0.2500 0.7500 (  2616 PWs)   bands (ev):

    -2.9383  -0.5645   2.7090   4.0651

          k = 0.4167-0.0833 0.5833 (  2617 PWs)   bands (ev):

    -3.6856   0.5301   2.6549   4.5685

          k = 0.2500 0.0833 0.4167 (  2624 PWs)   bands (ev):

    -4.7922   2.2460   4.0374   5.2604

          k =-0.0833 0.7500 0.0833 (  2617 PWs)   bands (ev):

    -3.3665   0.4197   3.2861   3.6484

          k = 0.7500-0.0833 0.9167 (  2608 PWs)   bands (ev):

    -2.1400  -0.9430   2.4039   3.2176

          k = 0.5833 0.0833 0.7500 (  2608 PWs)   bands (ev):

    -2.5100  -0.6178   1.9048   3.7798

          k = 0.4167 0.2500 0.5833 (  2622 PWs)   bands (ev):

    -3.5664  -0.1968   3.6416   4.6730

          k =-0.0833-0.9167 0.0833 (  2604 PWs)   bands (ev):

    -2.2385  -0.9535   3.0091   3.4290

          k =-0.2500-0.7500-0.0833 (  2615 PWs)   bands (ev):

    -3.1915   0.1893   2.7413   3.5674

          k =-0.0833-0.5833 0.0833 (  2620 PWs)   bands (ev):

    -4.3033   1.8031   3.8479   4.0788

          k =-0.2500 0.2500 0.2500 (  2632 PWs)   bands (ev):

    -5.0343   2.2730   5.4857   5.4857

          k =-0.4167 0.4167 0.0833 (  2620 PWs)   bands (ev):

    -4.3392   1.3430   3.2813   5.3165

          k = 0.4167-0.4167 0.9167 (  2613 PWs)   bands (ev):

    -3.1275  -0.1140   2.1361   4.5076

          k = 0.2500-0.2500 0.7500 (  2618 PWs)   bands (ev):

    -3.0762  -0.1941   2.6355   4.0115

          k =-0.2500 0.5833 0.2500 (  2613 PWs)   bands (ev):

    -3.9042   0.5132   3.7736   4.3933

          k = 0.5833-0.2500 1.0833 (  2619 PWs)   bands (ev):

    -2.8765  -0.2149   2.2381   3.5571

          k = 0.4167-0.0833 0.9167 (  2613 PWs)   bands (ev):

    -2.0245  -0.9506   2.0592   2.8637

          k =-0.2500-1.0833 0.2500 (  2605 PWs)   bands (ev):

    -2.2385  -0.8649   1.9289   3.8127

          k =-0.4167 0.4167 0.4167 (  2602 PWs)   bands (ev):

    -3.8074  -0.3119   5.0940   5.0940

          k = 0.4167-0.4167 1.2500 (  2605 PWs)   bands (ev):

    -3.1840  -0.6106   3.2018   4.6388

     highest occupied level (ev):     6.1106

!    total energy              =     -17.05090107 Ry
     estimated scf accuracy    <          9.1E-12 Ry

     The total energy is the sum of the following terms:
     one-electron contribution =       5.01080590 Ry
     hartree contribution      =       1.07710491 Ry
     xc contribution           =      -6.22231061 Ry
     ewald contribution        =     -16.91650128 Ry

     convergence has been achieved in   9 iterations

     Forces acting on atoms (cartesian axes, Ry/au):

     atom    1 type  1   force =     0.00000000    0.00000000    0.00000000
     atom    2 type  1   force =    -0.00000000   -0.00000000   -0.00000000

     Total force =     0.000000     Total SCF correction =     0.000000

     Writing all to output data dir /fastscratch/tsievers/QE_TMP_DIR/si_ph_bench_poolsize_18_n_procs_18_0.save/
 
     init_run     :      0.06s CPU      0.10s WALL (       1 calls)
     electrons    :      0.95s CPU      1.02s WALL (       1 calls)
     forces       :      0.01s CPU      0.01s WALL (       1 calls)

     Called by init_run:
     wfcinit      :      0.04s CPU      0.04s WALL (       1 calls)
     potinit      :      0.00s CPU      0.00s WALL (       1 calls)
     hinit0       :      0.01s CPU      0.04s WALL (       1 calls)

     Called by electrons:
     c_bands      :      0.84s CPU      0.86s WALL (      10 calls)
     sum_band     :      0.09s CPU      0.10s WALL (      10 calls)
     v_of_rho     :      0.01s CPU      0.01s WALL (      10 calls)
     mix_rho      :      0.00s CPU      0.00s WALL (      10 calls)

     Called by c_bands:
     init_us_2    :      0.03s CPU      0.03s WALL (     616 calls)
     init_us_2:cp :      0.03s CPU      0.03s WALL (     616 calls)
     cegterg      :      0.71s CPU      0.73s WALL (     280 calls)

     Called by *egterg:
     cdiaghg      :      0.05s CPU      0.05s WALL (    1134 calls)
     h_psi        :      0.62s CPU      0.64s WALL (    1190 calls)
     g_psi        :      0.00s CPU      0.00s WALL (     882 calls)

     Called by h_psi:
     h_psi:calbec :      0.04s CPU      0.04s WALL (    1190 calls)
     vloc_psi     :      0.54s CPU      0.56s WALL (    1190 calls)
     add_vuspsi   :      0.02s CPU      0.02s WALL (    1190 calls)

     General routines
     calbec       :      0.04s CPU      0.04s WALL (    1302 calls)
     fft          :      0.00s CPU      0.03s WALL (      34 calls)
     ffts         :      0.00s CPU      0.00s WALL (      10 calls)
     fftw         :      0.57s CPU      0.59s WALL (    9128 calls)
 
     Parallel routines
 
     PWSCF        :      1.07s CPU      2.57s WALL

 
   This run was terminated on:  13:22:25   3Jun2022            

=------------------------------------------------------------------------------=
   JOB DONE.
=------------------------------------------------------------------------------=

     Program PHONON v.7.0 starts on  3Jun2022 at 13:22:28 

     This program is part of the open-source Quantum ESPRESSO suite
     for quantum simulation of materials; please cite
         "P. Giannozzi et al., J. Phys.:Condens. Matter 21 395502 (2009);
         "P. Giannozzi et al., J. Phys.:Condens. Matter 29 465901 (2017);
         "P. Giannozzi et al., J. Chem. Phys. 152 154105 (2020);
          URL http://www.quantum-espresso.org", 
     in publications or presentations arising from this work. More details at
     http://www.quantum-espresso.org/quote

     Parallel version (MPI), running on    18 processors

     MPI processes distributed on     1 nodes
     R & G space division:  proc/nbgrp/npool/nimage =      18
     15742 MiB available memory on the printing compute node when the environment starts
 
     Reading input from in_files/si_ph_bench_poolsize_18_n_procs_18_0.ph
      Title line not specified: using 'default'.

     Reading xml data from directory:

     /fastscratch/tsievers/QE_TMP_DIR/si_ph_bench_poolsize_18_n_procs_18_0.save/

     IMPORTANT: XC functional enforced from input :
     Exchange-correlation= PW
                           (   1   4   0   0   0   0   0)
     Any further DFT definition will be discarded
     Please, verify this is what you really want

 
     Parallelization info
     --------------------
     sticks:   dense  smooth     PW     G-vecs:    dense   smooth      PW
     Min          55      55     16                 1158     1158     191
     Max          56      56     17                 1161     1161     195
     Sum        1003    1003    301                20875    20875    3479
 
     Using Slab Decomposition
 
     Reading collected, re-writing distributed wavefunctions


     Dynamical matrices for ( 6, 6, 6)  uniform grid of q-points
     (  16 q-points):
       N         xq(1)         xq(2)         xq(3) 
       1   0.000000000   0.000000000   0.000000000
       2  -0.166666667   0.166666667  -0.166666667
       3  -0.333333333   0.333333333  -0.333333333
       4   0.500000000  -0.500000000   0.500000000
       5   0.000000000   0.333333333   0.000000000
       6  -0.166666667   0.500000000  -0.166666667
       7   0.666666667  -0.333333333   0.666666667
       8   0.500000000  -0.166666667   0.500000000
       9   0.333333333   0.000000000   0.333333333
      10   0.000000000   0.666666667   0.000000000
      11   0.833333333  -0.166666667   0.833333333
      12   0.666666667  -0.000000000   0.666666667
      13   0.000000000  -1.000000000   0.000000000
      14   0.666666667  -0.333333333   1.000000000
      15   0.500000000  -0.166666667   0.833333333
      16  -0.333333333  -1.000000000   0.000000000

     Calculation of q =    0.0000000   0.0000000   0.0000000

     default                                                                    

     bravais-lattice index     =            2
     lattice parameter (alat)  =      10.1899  a.u.
     unit-cell volume          =     264.5151 (a.u.)^3
     number of atoms/cell      =            2
     number of atomic types    =            1
     kinetic-energy cut-off    =      70.0000  Ry
     charge density cut-off    =     280.0000  Ry
     convergence threshold     =      1.0E-15
     beta                      =       0.7000
     number of iterations used =            4
     Exchange-correlation= PW
                           (   1   4   0   0   0   0   0)


     celldm(1)=   10.18990  celldm(2)=    0.00000  celldm(3)=    0.00000
     celldm(4)=    0.00000  celldm(5)=    0.00000  celldm(6)=    0.00000

     crystal axes: (cart. coord. in units of alat)
               a(1) = ( -0.5000  0.0000  0.5000 )  
               a(2) = (  0.0000  0.5000  0.5000 )  
               a(3) = ( -0.5000  0.5000  0.0000 )  

     reciprocal axes: (cart. coord. in units 2 pi/alat)
               b(1) = ( -1.0000 -1.0000  1.0000 )  
               b(2) = (  1.0000  1.0000  1.0000 )  
               b(3) = ( -1.0000  1.0000 -1.0000 )  


     Atoms inside the unit cell: 

     Cartesian axes

     site n.  atom      mass           positions (alat units)
        1     Si  28.0855   tau(    1) = (    0.00000    0.00000    0.00000  )
        2     Si  28.0855   tau(    2) = (   -0.25000    0.25000    0.25000  )

     Computing dynamical matrix for 
                    q = (   0.0000000   0.0000000   0.0000000 )
 
     49 Sym.Ops. (with q -> -q+G )


     G cutoff =  736.4420  (   1161 G-vectors)     FFT grid: ( 40, 40, 40)
     number of k points=    28

     PseudoPot. # 1 for Si read from file:
     ./pseudos/Si.nc.UPF
     MD5 check sum: 9e2d726316af3d4752eea8ab0afbb951
     Pseudo is Norm-conserving + core correction, Zval =  4.0
     Generated using ONCVPSP code by D. R. Hamann
     Using radial grid of 1510 points,  6 beta functions with: 
                l(1) =   0
                l(2) =   0
                l(3) =   1
                l(4) =   1
                l(5) =   2
                l(6) =   2

     Mode symmetry, O_h (m-3m)  point group:


     Electric field:
     Dielectric constant
     Born effective charges in two ways 


     Atomic displacements:
     There are    2 irreducible representations

     Representation     1      3 modes -  To be done

     Representation     2      3 modes -  To be done



     Alpha used in Ewald sum =   2.8000
     PHONON       :      0.49s CPU      0.84s WALL


     Electric Fields Calculation

      iter #   1 total cpu time :     2.8 secs   av.it.:   6.5
      thresh= 1.000E-02 alpha_mix =  0.700 |ddv_scf|^2 =  6.313E-08

      iter #   2 total cpu time :     4.0 secs   av.it.:  12.0
      thresh= 2.513E-05 alpha_mix =  0.700 |ddv_scf|^2 =  2.705E-09

      iter #   3 total cpu time :     5.2 secs   av.it.:  11.8
      thresh= 5.201E-06 alpha_mix =  0.700 |ddv_scf|^2 =  3.049E-11

      iter #   4 total cpu time :     6.4 secs   av.it.:  12.2
      thresh= 5.522E-07 alpha_mix =  0.700 |ddv_scf|^2 =  1.809E-13

      iter #   5 total cpu time :     7.4 secs   av.it.:  11.1
      thresh= 4.253E-08 alpha_mix =  0.700 |ddv_scf|^2 =  6.643E-17

     End of electric fields calculation

          Dielectric constant in cartesian axis 

          (      13.311680285      -0.000000000      -0.000000000 )
          (      -0.000000000      13.311680285       0.000000000 )
          (      -0.000000000       0.000000000      13.311680285 )

          Effective charges (d Force / dE) in cartesian axis without acoustic sum rule applied (asr)

           atom      1   Si Mean Z*:       -0.00670
      Ex  (       -0.00670        0.00000        0.00000 )
      Ey  (        0.00000       -0.00670       -0.00000 )
      Ez  (        0.00000       -0.00000       -0.00670 )
           atom      2   Si Mean Z*:       -0.00670
      Ex  (       -0.00670        0.00000        0.00000 )
      Ey  (        0.00000       -0.00670       -0.00000 )
      Ez  (        0.00000       -0.00000       -0.00670 )

          Effective charges Sum: Mean:       -0.01340
             -0.01340        0.00000        0.00000
              0.00000       -0.01340       -0.00000
              0.00000       -0.00000       -0.01340

          Effective charges (d Force / dE) in cartesian axis with asr applied: 
           atom      1   Si Mean Z*:        0.00000
      E*x (        0.00000        0.00000        0.00000 )
      E*y (       -0.00000        0.00000        0.00000 )
      E*z (        0.00000       -0.00000        0.00000 )
           atom      2   Si Mean Z*:       -0.00000
      E*x (       -0.00000       -0.00000        0.00000 )
      E*y (        0.00000        0.00000        0.00000 )
      E*z (       -0.00000        0.00000       -0.00000 )


     Representation #   1 modes #   1   2   3

     Self-consistent Calculation

      iter #   1 total cpu time :     8.5 secs   av.it.:   5.8
      thresh= 1.000E-02 alpha_mix =  0.700 |ddv_scf|^2 =  9.101E-09

      iter #   2 total cpu time :     9.7 secs   av.it.:  11.9
      thresh= 9.540E-06 alpha_mix =  0.700 |ddv_scf|^2 =  2.045E-10

      iter #   3 total cpu time :    11.0 secs   av.it.:  12.0
      thresh= 1.430E-06 alpha_mix =  0.700 |ddv_scf|^2 =  7.634E-12

      iter #   4 total cpu time :    12.2 secs   av.it.:  11.7
      thresh= 2.763E-07 alpha_mix =  0.700 |ddv_scf|^2 =  2.472E-14

      iter #   5 total cpu time :    13.3 secs   av.it.:  12.1
      thresh= 1.572E-08 alpha_mix =  0.700 |ddv_scf|^2 =  1.148E-16

     End of self-consistent calculation

     Convergence has been achieved 


     Representation #   2 modes #   4   5   6

     Self-consistent Calculation

      iter #   1 total cpu time :    14.4 secs   av.it.:   6.0
      thresh= 1.000E-02 alpha_mix =  0.700 |ddv_scf|^2 =  6.568E-09

      iter #   2 total cpu time :    15.7 secs   av.it.:  12.1
      thresh= 8.105E-06 alpha_mix =  0.700 |ddv_scf|^2 =  2.362E-10

      iter #   3 total cpu time :    17.0 secs   av.it.:  12.0
      thresh= 1.537E-06 alpha_mix =  0.700 |ddv_scf|^2 =  1.075E-11

      iter #   4 total cpu time :    18.2 secs   av.it.:  12.0
      thresh= 3.279E-07 alpha_mix =  0.700 |ddv_scf|^2 =  1.925E-14

      iter #   5 total cpu time :    19.4 secs   av.it.:  12.2
      thresh= 1.387E-08 alpha_mix =  0.700 |ddv_scf|^2 =  5.194E-17

     End of self-consistent calculation

     Convergence has been achieved 
 
     Number of q in the star =    1
     List of q in the star:
          1   0.000000000   0.000000000   0.000000000

          Dielectric constant in cartesian axis 

          (      13.311680285      -0.000000000      -0.000000000 )
          (      -0.000000000      13.311680285       0.000000000 )
          (      -0.000000000       0.000000000      13.311680285 )

          Effective charges (d Force / dE) in cartesian axis without acoustic sum rule applied (asr)

           atom      1   Si Mean Z*:       -0.00670
      Ex  (       -0.00670        0.00000        0.00000 )
      Ey  (        0.00000       -0.00670       -0.00000 )
      Ez  (        0.00000       -0.00000       -0.00670 )
           atom      2   Si Mean Z*:       -0.00670
      Ex  (       -0.00670        0.00000        0.00000 )
      Ey  (        0.00000       -0.00670       -0.00000 )
      Ez  (        0.00000       -0.00000       -0.00670 )

          Effective charges Sum: Mean:       -0.01340
             -0.01340        0.00000        0.00000
              0.00000       -0.01340       -0.00000
              0.00000       -0.00000       -0.01340

          Effective charges (d Force / dE) in cartesian axis with asr applied: 
           atom      1   Si Mean Z*:        0.00000
      E*x (        0.00000        0.00000        0.00000 )
      E*y (       -0.00000        0.00000        0.00000 )
      E*z (        0.00000       -0.00000        0.00000 )
           atom      2   Si Mean Z*:       -0.00000
      E*x (       -0.00000       -0.00000        0.00000 )
      E*y (        0.00000        0.00000        0.00000 )
      E*z (       -0.00000        0.00000       -0.00000 )

          Effective charges (d P / du) in cartesian axis 

           atom      1   Si 
      Px  (       -0.00677       -0.00000       -0.00000 )
      Py  (       -0.00000       -0.00677        0.00000 )
      Pz  (       -0.00000        0.00000       -0.00677 )
           atom      2   Si 
      Px  (       -0.00677        0.00000       -0.00000 )
      Py  (        0.00000       -0.00677       -0.00000 )
      Pz  (        0.00000       -0.00000       -0.00677 )

     Diagonalizing the dynamical matrix

     q = (    0.000000000   0.000000000   0.000000000 ) 

 **************************************************************************
     freq (    1) =      -0.108699 [THz] =      -3.625815 [cm-1]
     freq (    2) =      -0.108699 [THz] =      -3.625815 [cm-1]
     freq (    3) =      -0.108699 [THz] =      -3.625815 [cm-1]
     freq (    4) =      15.412117 [THz] =     514.092872 [cm-1]
     freq (    5) =      15.412117 [THz] =     514.092872 [cm-1]
     freq (    6) =      15.412117 [THz] =     514.092872 [cm-1]
 **************************************************************************

     Mode symmetry, O_h (m-3m)  point group:

     freq (   1-   3) =         -3.6  [cm-1]   --> T_1u G_15  G_4- I  
     freq (   4-   6) =        514.1  [cm-1]   --> T_2g G_25' G_5+ R  

     Calculation of q =   -0.1666667   0.1666667  -0.1666667

     Subspace diagonalization in iterative solution of the eigenvalue problem:
     a serial algorithm will be used

 
     Parallelization info
     --------------------
     sticks:   dense  smooth     PW     G-vecs:    dense   smooth      PW
     Min          55      55     17                 1158     1158     204
     Max          56      56     18                 1161     1161     207
     Sum        1003    1003    313                20875    20875    3695
 
     Using Slab Decomposition
 

     Title: 
     default                                                                    


     bravais-lattice index     =            2
     lattice parameter (alat)  =      10.1899  a.u.
     unit-cell volume          =     264.5151 (a.u.)^3
     number of atoms/cell      =            2
     number of atomic types    =            1
     number of electrons       =         8.00
     number of Kohn-Sham states=            4
     kinetic-energy cutoff     =      70.0000  Ry
     charge density cutoff     =     280.0000  Ry
     Exchange-correlation= PW
                           (   1   4   0   0   0   0   0)

     celldm(1)=  10.189905  celldm(2)=   0.000000  celldm(3)=   0.000000
     celldm(4)=   0.000000  celldm(5)=   0.000000  celldm(6)=   0.000000

     crystal axes: (cart. coord. in units of alat)
               a(1) = (  -0.500000   0.000000   0.500000 )  
               a(2) = (   0.000000   0.500000   0.500000 )  
               a(3) = (  -0.500000   0.500000   0.000000 )  

     reciprocal axes: (cart. coord. in units 2 pi/alat)
               b(1) = ( -1.000000 -1.000000  1.000000 )  
               b(2) = (  1.000000  1.000000  1.000000 )  
               b(3) = ( -1.000000  1.000000 -1.000000 )  


     PseudoPot. # 1 for Si read from file:
     ./pseudos/Si.nc.UPF
     MD5 check sum: 9e2d726316af3d4752eea8ab0afbb951
     Pseudo is Norm-conserving + core correction, Zval =  4.0
     Generated using ONCVPSP code by D. R. Hamann
     Using radial grid of 1510 points,  6 beta functions with: 
                l(1) =   0
                l(2) =   0
                l(3) =   1
                l(4) =   1
                l(5) =   2
                l(6) =   2

     atomic species   valence    mass     pseudopotential
        Si             4.00    28.08550     Si( 1.00)

     48 Sym. Ops., with inversion, found



   Cartesian axes

     site n.     atom                  positions (alat units)
         1           Si  tau(   1) = (   0.0000000   0.0000000   0.0000000  )
         2           Si  tau(   2) = (  -0.2500000   0.2500000   0.2500000  )

     number of k points=   364

     Number of k-points >= 100: set verbosity='high' to print them.

     Dense  grid:    20875 G-vectors     FFT dimensions: (  40,  40,  40)

     Estimated max dynamical RAM per process >       2.01 MB

     Estimated total dynamical RAM >      36.13 MB

     The potential is recalculated from file :
     /fastscratch/tsievers/QE_TMP_DIR/_ph0/si_ph_bench_poolsize_18_n_procs_18_0.save/charge-density

     Starting wfcs are    8 atomic wfcs

     Band Structure Calculation
     Davidson diagonalization with overlap

     ethr =  1.25E-10,  avg # of iterations = 12.9

     total cpu time spent up to now is        6.5 secs

     End of band structure calculation

     Number of k-points >= 100: set verbosity='high' to print the bands.

     highest occupied level (ev):     6.1106

     Writing config to output data dir /fastscratch/tsievers/QE_TMP_DIR/_ph0/si_ph_bench_poolsize_18_n_procs_18_0.save/

     default                                                                    

     bravais-lattice index     =            2
     lattice parameter (alat)  =      10.1899  a.u.
     unit-cell volume          =     264.5151 (a.u.)^3
     number of atoms/cell      =            2
     number of atomic types    =            1
     kinetic-energy cut-off    =      70.0000  Ry
     charge density cut-off    =     280.0000  Ry
     convergence threshold     =      1.0E-15
     beta                      =       0.7000
     number of iterations used =            4
     Exchange-correlation= PW
                           (   1   4   0   0   0   0   0)


     celldm(1)=   10.18990  celldm(2)=    0.00000  celldm(3)=    0.00000
     celldm(4)=    0.00000  celldm(5)=    0.00000  celldm(6)=    0.00000

     crystal axes: (cart. coord. in units of alat)
               a(1) = ( -0.5000  0.0000  0.5000 )  
               a(2) = (  0.0000  0.5000  0.5000 )  
               a(3) = ( -0.5000  0.5000  0.0000 )  

     reciprocal axes: (cart. coord. in units 2 pi/alat)
               b(1) = ( -1.0000 -1.0000  1.0000 )  
               b(2) = (  1.0000  1.0000  1.0000 )  
               b(3) = ( -1.0000  1.0000 -1.0000 )  


     Atoms inside the unit cell: 

     Cartesian axes

     site n.  atom      mass           positions (alat units)
        1     Si  28.0855   tau(    1) = (    0.00000    0.00000    0.00000  )
        2     Si  28.0855   tau(    2) = (   -0.25000    0.25000    0.25000  )

     Computing dynamical matrix for 
                    q = (  -0.1666667   0.1666667  -0.1666667 )
 
      6 Sym.Ops. (no q -> -q+G )


     G cutoff =  736.4420  (   1161 G-vectors)     FFT grid: ( 40, 40, 40)
     number of k points=   364

     PseudoPot. # 1 for Si read from file:
     ./pseudos/Si.nc.UPF
     MD5 check sum: 9e2d726316af3d4752eea8ab0afbb951
     Pseudo is Norm-conserving + core correction, Zval =  4.0
     Generated using ONCVPSP code by D. R. Hamann
     Using radial grid of 1510 points,  6 beta functions with: 
                l(1) =   0
                l(2) =   0
                l(3) =   1
                l(4) =   1
                l(5) =   2
                l(6) =   2

     Mode symmetry, C_3v (3m)   point group:


     Atomic displacements:
     There are    4 irreducible representations

     Representation     1      1 modes -  To be done

     Representation     2      1 modes -  To be done

     Representation     3      2 modes -  To be done

     Representation     4      2 modes -  To be done



     Alpha used in Ewald sum =   2.8000
     PHONON       :     22.69s CPU     27.50s WALL



     Representation #   1 mode #   1

     Self-consistent Calculation

      iter #   1 total cpu time :    28.8 secs   av.it.:   6.6
      thresh= 1.000E-02 alpha_mix =  0.700 |ddv_scf|^2 =  8.515E-04

      iter #   2 total cpu time :    30.4 secs   av.it.:   9.2
      thresh= 2.918E-03 alpha_mix =  0.700 |ddv_scf|^2 =  2.790E-02

      iter #   3 total cpu time :    31.8 secs   av.it.:   7.6
      thresh= 1.000E-02 alpha_mix =  0.700 |ddv_scf|^2 =  2.272E-07

      iter #   4 total cpu time :    33.5 secs   av.it.:   9.3
      thresh= 4.766E-05 alpha_mix =  0.700 |ddv_scf|^2 =  7.469E-09

      iter #   5 total cpu time :    35.2 secs   av.it.:   9.7
      thresh= 8.643E-06 alpha_mix =  0.700 |ddv_scf|^2 =  2.488E-10

      iter #   6 total cpu time :    36.8 secs   av.it.:   9.3
      thresh= 1.577E-06 alpha_mix =  0.700 |ddv_scf|^2 =  7.014E-10

      iter #   7 total cpu time :    38.2 secs   av.it.:   7.9
      thresh= 2.648E-06 alpha_mix =  0.700 |ddv_scf|^2 =  5.657E-11

      iter #   8 total cpu time :    39.8 secs   av.it.:   8.6
      thresh= 7.521E-07 alpha_mix =  0.700 |ddv_scf|^2 =  4.093E-13

      iter #   9 total cpu time :    41.4 secs   av.it.:   8.5
      thresh= 6.397E-08 alpha_mix =  0.700 |ddv_scf|^2 =  9.251E-15

      iter #  10 total cpu time :    42.9 secs   av.it.:   8.8
      thresh= 9.618E-09 alpha_mix =  0.700 |ddv_scf|^2 =  9.337E-16

     End of self-consistent calculation

     Convergence has been achieved 


     Representation #   2 mode #   2

     Self-consistent Calculation

      iter #   1 total cpu time :    44.3 secs   av.it.:   6.6
      thresh= 1.000E-02 alpha_mix =  0.700 |ddv_scf|^2 =  8.515E-04

      iter #   2 total cpu time :    45.9 secs   av.it.:   9.2
      thresh= 2.918E-03 alpha_mix =  0.700 |ddv_scf|^2 =  2.790E-02

      iter #   3 total cpu time :    47.3 secs   av.it.:   7.6
      thresh= 1.000E-02 alpha_mix =  0.700 |ddv_scf|^2 =  2.272E-07

      iter #   4 total cpu time :    48.9 secs   av.it.:   9.3
      thresh= 4.766E-05 alpha_mix =  0.700 |ddv_scf|^2 =  7.469E-09

      iter #   5 total cpu time :    51.0 secs   av.it.:   9.7
      thresh= 8.643E-06 alpha_mix =  0.700 |ddv_scf|^2 =  2.488E-10

      iter #   6 total cpu time :    52.6 secs   av.it.:   9.3
      thresh= 1.577E-06 alpha_mix =  0.700 |ddv_scf|^2 =  7.014E-10

      iter #   7 total cpu time :    54.0 secs   av.it.:   7.9
      thresh= 2.648E-06 alpha_mix =  0.700 |ddv_scf|^2 =  5.657E-11

      iter #   8 total cpu time :    55.7 secs   av.it.:   8.7
      thresh= 7.521E-07 alpha_mix =  0.700 |ddv_scf|^2 =  4.093E-13

      iter #   9 total cpu time :    57.3 secs   av.it.:   8.5
      thresh= 6.397E-08 alpha_mix =  0.700 |ddv_scf|^2 =  9.251E-15

      iter #  10 total cpu time :    58.8 secs   av.it.:   8.8
      thresh= 9.618E-09 alpha_mix =  0.700 |ddv_scf|^2 =  9.339E-16

     End of self-consistent calculation

     Convergence has been achieved 


     Representation #   3 modes #   3   4

     Self-consistent Calculation

      iter #   1 total cpu time :    61.2 secs   av.it.:   6.1
      thresh= 1.000E-02 alpha_mix =  0.700 |ddv_scf|^2 =  2.221E-08

      iter #   2 total cpu time :    65.6 secs   av.it.:  11.7
      thresh= 1.490E-05 alpha_mix =  0.700 |ddv_scf|^2 =  9.884E-10

      iter #   3 total cpu time :    69.6 secs   av.it.:  11.5
      thresh= 3.144E-06 alpha_mix =  0.700 |ddv_scf|^2 =  2.581E-11

      iter #   4 total cpu time :    73.3 secs   av.it.:  11.6
      thresh= 5.080E-07 alpha_mix =  0.700 |ddv_scf|^2 =  2.977E-13

      iter #   5 total cpu time :    77.1 secs   av.it.:  11.6
      thresh= 5.457E-08 alpha_mix =  0.700 |ddv_scf|^2 =  6.320E-15

      iter #   6 total cpu time :    80.9 secs   av.it.:  12.0
      thresh= 7.950E-09 alpha_mix =  0.700 |ddv_scf|^2 =  2.870E-17

     End of self-consistent calculation

     Convergence has been achieved 


     Representation #   4 modes #   5   6

     Self-consistent Calculation

      iter #   1 total cpu time :    83.4 secs   av.it.:   6.0
      thresh= 1.000E-02 alpha_mix =  0.700 |ddv_scf|^2 =  2.221E-08

      iter #   2 total cpu time :    87.2 secs   av.it.:  11.7
      thresh= 1.490E-05 alpha_mix =  0.700 |ddv_scf|^2 =  9.887E-10

      iter #   3 total cpu time :    91.0 secs   av.it.:  11.5
      thresh= 3.144E-06 alpha_mix =  0.700 |ddv_scf|^2 =  2.581E-11

      iter #   4 total cpu time :    95.4 secs   av.it.:  11.6
      thresh= 5.080E-07 alpha_mix =  0.700 |ddv_scf|^2 =  2.979E-13

      iter #   5 total cpu time :    99.2 secs   av.it.:  11.6
      thresh= 5.458E-08 alpha_mix =  0.700 |ddv_scf|^2 =  6.327E-15

      iter #   6 total cpu time :   103.0 secs   av.it.:  12.0
      thresh= 7.954E-09 alpha_mix =  0.700 |ddv_scf|^2 =  2.868E-17

     End of self-consistent calculation

     Convergence has been achieved 
 
     Number of q in the star =    8
     List of q in the star:
          1  -0.166666667   0.166666667  -0.166666667
          2   0.166666667   0.166666667   0.166666667
          3  -0.166666667  -0.166666667  -0.166666667
          4   0.166666667  -0.166666667   0.166666667
          5   0.166666667  -0.166666667  -0.166666667
          6   0.166666667   0.166666667  -0.166666667
          7  -0.166666667  -0.166666667   0.166666667
          8  -0.166666667   0.166666667   0.166666667

     Diagonalizing the dynamical matrix

     q = (   -0.166666667   0.166666667  -0.166666667 ) 

 **************************************************************************
     freq (    1) =       2.202802 [THz] =      73.477561 [cm-1]
     freq (    2) =       2.202802 [THz] =      73.477561 [cm-1]
     freq (    3) =       4.748458 [THz] =     158.391505 [cm-1]
     freq (    4) =      15.023983 [THz] =     501.146125 [cm-1]
     freq (    5) =      15.065895 [THz] =     502.544176 [cm-1]
     freq (    6) =      15.065895 [THz] =     502.544176 [cm-1]
 **************************************************************************

     Mode symmetry, C_3v (3m)   point group:

     freq (   1-   2) =         73.5  [cm-1]   --> E    L_3           
     freq (   3-   3) =        158.4  [cm-1]   --> A_1  L_1           
     freq (   4-   4) =        501.1  [cm-1]   --> A_1  L_1           
     freq (   5-   6) =        502.5  [cm-1]   --> E    L_3           

     Calculation of q =   -0.3333333   0.3333333  -0.3333333
 
     Parallelization info
     --------------------
     sticks:   dense  smooth     PW     G-vecs:    dense   smooth      PW
     Min          55      55     17                 1158     1158     211
     Max          56      56     18                 1161     1161     216
     Sum        1003    1003    313                20875    20875    3839
 
     Using Slab Decomposition
 

     Title: 
     default                                                                    


     bravais-lattice index     =            2
     lattice parameter (alat)  =      10.1899  a.u.
     unit-cell volume          =     264.5151 (a.u.)^3
     number of atoms/cell      =            2
     number of atomic types    =            1
     number of electrons       =         8.00
     number of Kohn-Sham states=            4
     kinetic-energy cutoff     =      70.0000  Ry
     charge density cutoff     =     280.0000  Ry
     Exchange-correlation= PW
                           (   1   4   0   0   0   0   0)

     celldm(1)=  10.189905  celldm(2)=   0.000000  celldm(3)=   0.000000
     celldm(4)=   0.000000  celldm(5)=   0.000000  celldm(6)=   0.000000

     crystal axes: (cart. coord. in units of alat)
               a(1) = (  -0.500000   0.000000   0.500000 )  
               a(2) = (   0.000000   0.500000   0.500000 )  
               a(3) = (  -0.500000   0.500000   0.000000 )  

     reciprocal axes: (cart. coord. in units 2 pi/alat)
               b(1) = ( -1.000000 -1.000000  1.000000 )  
               b(2) = (  1.000000  1.000000  1.000000 )  
               b(3) = ( -1.000000  1.000000 -1.000000 )  


     PseudoPot. # 1 for Si read from file:
     ./pseudos/Si.nc.UPF
     MD5 check sum: 9e2d726316af3d4752eea8ab0afbb951
     Pseudo is Norm-conserving + core correction, Zval =  4.0
     Generated using ONCVPSP code by D. R. Hamann
     Using radial grid of 1510 points,  6 beta functions with: 
                l(1) =   0
                l(2) =   0
                l(3) =   1
                l(4) =   1
                l(5) =   2
                l(6) =   2

     atomic species   valence    mass     pseudopotential
        Si             4.00    28.08550     Si( 1.00)

     48 Sym. Ops., with inversion, found



   Cartesian axes

     site n.     atom                  positions (alat units)
         1           Si  tau(   1) = (   0.0000000   0.0000000   0.0000000  )
         2           Si  tau(   2) = (  -0.2500000   0.2500000   0.2500000  )

     number of k points=   364

     Number of k-points >= 100: set verbosity='high' to print them.

     Dense  grid:    20875 G-vectors     FFT dimensions: (  40,  40,  40)

     Estimated max dynamical RAM per process >       2.02 MB

     Estimated total dynamical RAM >      36.38 MB

     The potential is recalculated from file :
     /fastscratch/tsievers/QE_TMP_DIR/_ph0/si_ph_bench_poolsize_18_n_procs_18_0.save/charge-density

     Starting wfcs are    8 atomic wfcs

     Band Structure Calculation
     Davidson diagonalization with overlap

     ethr =  1.25E-10,  avg # of iterations = 12.9

     total cpu time spent up to now is       11.7 secs

     End of band structure calculation

     Number of k-points >= 100: set verbosity='high' to print the bands.

     highest occupied level (ev):     6.1106

     Writing config to output data dir /fastscratch/tsievers/QE_TMP_DIR/_ph0/si_ph_bench_poolsize_18_n_procs_18_0.save/

     default                                                                    

     bravais-lattice index     =            2
     lattice parameter (alat)  =      10.1899  a.u.
     unit-cell volume          =     264.5151 (a.u.)^3
     number of atoms/cell      =            2
     number of atomic types    =            1
     kinetic-energy cut-off    =      70.0000  Ry
     charge density cut-off    =     280.0000  Ry
     convergence threshold     =      1.0E-15
     beta                      =       0.7000
     number of iterations used =            4
     Exchange-correlation= PW
                           (   1   4   0   0   0   0   0)


     celldm(1)=   10.18990  celldm(2)=    0.00000  celldm(3)=    0.00000
     celldm(4)=    0.00000  celldm(5)=    0.00000  celldm(6)=    0.00000

     crystal axes: (cart. coord. in units of alat)
               a(1) = ( -0.5000  0.0000  0.5000 )  
               a(2) = (  0.0000  0.5000  0.5000 )  
               a(3) = ( -0.5000  0.5000  0.0000 )  

     reciprocal axes: (cart. coord. in units 2 pi/alat)
               b(1) = ( -1.0000 -1.0000  1.0000 )  
               b(2) = (  1.0000  1.0000  1.0000 )  
               b(3) = ( -1.0000  1.0000 -1.0000 )  


     Atoms inside the unit cell: 

     Cartesian axes

     site n.  atom      mass           positions (alat units)
        1     Si  28.0855   tau(    1) = (    0.00000    0.00000    0.00000  )
        2     Si  28.0855   tau(    2) = (   -0.25000    0.25000    0.25000  )

     Computing dynamical matrix for 
                    q = (  -0.3333333   0.3333333  -0.3333333 )
 
      6 Sym.Ops. (no q -> -q+G )


     G cutoff =  736.4420  (   1161 G-vectors)     FFT grid: ( 40, 40, 40)
     number of k points=   364

     PseudoPot. # 1 for Si read from file:
     ./pseudos/Si.nc.UPF
     MD5 check sum: 9e2d726316af3d4752eea8ab0afbb951
     Pseudo is Norm-conserving + core correction, Zval =  4.0
     Generated using ONCVPSP code by D. R. Hamann
     Using radial grid of 1510 points,  6 beta functions with: 
                l(1) =   0
                l(2) =   0
                l(3) =   1
                l(4) =   1
                l(5) =   2
                l(6) =   2

     Mode symmetry, C_3v (3m)   point group:


     Atomic displacements:
     There are    4 irreducible representations

     Representation     1      1 modes -  To be done

     Representation     2      1 modes -  To be done

     Representation     3      2 modes -  To be done

     Representation     4      2 modes -  To be done



     Alpha used in Ewald sum =   2.8000
     PHONON       :   1m35.77s CPU   1m49.66s WALL



     Representation #   1 mode #   1

     Self-consistent Calculation

      iter #   1 total cpu time :   110.9 secs   av.it.:   6.5
      thresh= 1.000E-02 alpha_mix =  0.700 |ddv_scf|^2 =  5.392E-05

      iter #   2 total cpu time :   112.6 secs   av.it.:   9.9
      thresh= 7.343E-04 alpha_mix =  0.700 |ddv_scf|^2 =  4.303E-04

      iter #   3 total cpu time :   114.1 secs   av.it.:   8.6
      thresh= 2.074E-03 alpha_mix =  0.700 |ddv_scf|^2 =  7.923E-08

      iter #   4 total cpu time :   115.9 secs   av.it.:  10.1
      thresh= 2.815E-05 alpha_mix =  0.700 |ddv_scf|^2 =  1.609E-09

      iter #   5 total cpu time :   117.6 secs   av.it.:  10.1
      thresh= 4.012E-06 alpha_mix =  0.700 |ddv_scf|^2 =  1.694E-11

      iter #   6 total cpu time :   119.4 secs   av.it.:  10.6
      thresh= 4.116E-07 alpha_mix =  0.700 |ddv_scf|^2 =  1.423E-12

      iter #   7 total cpu time :   121.2 secs   av.it.:  10.6
      thresh= 1.193E-07 alpha_mix =  0.700 |ddv_scf|^2 =  6.670E-14

      iter #   8 total cpu time :   123.0 secs   av.it.:  10.3
      thresh= 2.583E-08 alpha_mix =  0.700 |ddv_scf|^2 =  4.094E-13

      iter #   9 total cpu time :   124.7 secs   av.it.:   8.9
      thresh= 6.399E-08 alpha_mix =  0.700 |ddv_scf|^2 =  2.566E-15

      iter #  10 total cpu time :   126.3 secs   av.it.:   9.5
      thresh= 5.065E-09 alpha_mix =  0.700 |ddv_scf|^2 =  9.084E-16

     End of self-consistent calculation

     Convergence has been achieved 


     Representation #   2 mode #   2

     Self-consistent Calculation

      iter #   1 total cpu time :   127.6 secs   av.it.:   6.5
      thresh= 1.000E-02 alpha_mix =  0.700 |ddv_scf|^2 =  5.392E-05

      iter #   2 total cpu time :   129.3 secs   av.it.:   9.9
      thresh= 7.343E-04 alpha_mix =  0.700 |ddv_scf|^2 =  4.303E-04

      iter #   3 total cpu time :   130.8 secs   av.it.:   8.6
      thresh= 2.074E-03 alpha_mix =  0.700 |ddv_scf|^2 =  7.923E-08

      iter #   4 total cpu time :   132.5 secs   av.it.:  10.1
      thresh= 2.815E-05 alpha_mix =  0.700 |ddv_scf|^2 =  1.609E-09

      iter #   5 total cpu time :   134.2 secs   av.it.:  10.1
      thresh= 4.012E-06 alpha_mix =  0.700 |ddv_scf|^2 =  1.694E-11

      iter #   6 total cpu time :   136.0 secs   av.it.:  10.6
      thresh= 4.116E-07 alpha_mix =  0.700 |ddv_scf|^2 =  1.423E-12

      iter #   7 total cpu time :   137.8 secs   av.it.:  10.6
      thresh= 1.193E-07 alpha_mix =  0.700 |ddv_scf|^2 =  6.680E-14

      iter #   8 total cpu time :   139.8 secs   av.it.:  10.3
      thresh= 2.585E-08 alpha_mix =  0.700 |ddv_scf|^2 =  4.099E-13

      iter #   9 total cpu time :   141.5 secs   av.it.:   8.9
      thresh= 6.403E-08 alpha_mix =  0.700 |ddv_scf|^2 =  2.578E-15

      iter #  10 total cpu time :   143.1 secs   av.it.:   9.5
      thresh= 5.077E-09 alpha_mix =  0.700 |ddv_scf|^2 =  9.033E-16

     End of self-consistent calculation

     Convergence has been achieved 


     Representation #   3 modes #   3   4

     Self-consistent Calculation

      iter #   1 total cpu time :   147.0 secs   av.it.:   6.1
      thresh= 1.000E-02 alpha_mix =  0.700 |ddv_scf|^2 =  3.025E-08

      iter #   2 total cpu time :   150.8 secs   av.it.:  11.6
      thresh= 1.739E-05 alpha_mix =  0.700 |ddv_scf|^2 =  2.095E-09

      iter #   3 total cpu time :   154.5 secs   av.it.:  11.4
      thresh= 4.577E-06 alpha_mix =  0.700 |ddv_scf|^2 =  3.034E-11

      iter #   4 total cpu time :   158.3 secs   av.it.:  11.6
      thresh= 5.508E-07 alpha_mix =  0.700 |ddv_scf|^2 =  3.044E-13

      iter #   5 total cpu time :   162.1 secs   av.it.:  11.6
      thresh= 5.517E-08 alpha_mix =  0.700 |ddv_scf|^2 =  5.926E-15

      iter #   6 total cpu time :   165.9 secs   av.it.:  11.9
      thresh= 7.698E-09 alpha_mix =  0.700 |ddv_scf|^2 =  4.033E-17

     End of self-consistent calculation

     Convergence has been achieved 


     Representation #   4 modes #   5   6

     Self-consistent Calculation

      iter #   1 total cpu time :   168.4 secs   av.it.:   6.1
      thresh= 1.000E-02 alpha_mix =  0.700 |ddv_scf|^2 =  3.026E-08

      iter #   2 total cpu time :   172.2 secs   av.it.:  11.6
      thresh= 1.740E-05 alpha_mix =  0.700 |ddv_scf|^2 =  2.098E-09

      iter #   3 total cpu time :   176.7 secs   av.it.:  11.4
      thresh= 4.580E-06 alpha_mix =  0.700 |ddv_scf|^2 =  3.033E-11

      iter #   4 total cpu time :   180.4 secs   av.it.:  11.6
      thresh= 5.507E-07 alpha_mix =  0.700 |ddv_scf|^2 =  3.044E-13

      iter #   5 total cpu time :   184.6 secs   av.it.:  11.6
      thresh= 5.517E-08 alpha_mix =  0.700 |ddv_scf|^2 =  5.920E-15

      iter #   6 total cpu time :   188.9 secs   av.it.:  11.9
      thresh= 7.694E-09 alpha_mix =  0.700 |ddv_scf|^2 =  4.032E-17

     End of self-consistent calculation

     Convergence has been achieved 
 
     Number of q in the star =    8
     List of q in the star:
          1  -0.333333333   0.333333333  -0.333333333
          2   0.333333333   0.333333333   0.333333333
          3  -0.333333333  -0.333333333  -0.333333333
          4   0.333333333  -0.333333333   0.333333333
          5   0.333333333  -0.333333333  -0.333333333
          6   0.333333333   0.333333333  -0.333333333
          7  -0.333333333  -0.333333333   0.333333333
          8  -0.333333333   0.333333333   0.333333333

     Diagonalizing the dynamical matrix

     q = (   -0.333333333   0.333333333  -0.333333333 ) 

 **************************************************************************
     freq (    1) =       3.044142 [THz] =     101.541644 [cm-1]
     freq (    2) =       3.044142 [THz] =     101.541644 [cm-1]
     freq (    3) =       8.746992 [THz] =     291.768238 [cm-1]
     freq (    4) =      13.857034 [THz] =     462.220908 [cm-1]
     freq (    5) =      14.763305 [THz] =     492.450858 [cm-1]
     freq (    6) =      14.763305 [THz] =     492.450858 [cm-1]
 **************************************************************************

     Mode symmetry, C_3v (3m)   point group:

     freq (   1-   2) =        101.5  [cm-1]   --> E    L_3           
     freq (   3-   3) =        291.8  [cm-1]   --> A_1  L_1           
     freq (   4-   4) =        462.2  [cm-1]   --> A_1  L_1           
     freq (   5-   6) =        492.5  [cm-1]   --> E    L_3           

     Calculation of q =    0.5000000  -0.5000000   0.5000000
 
     Parallelization info
     --------------------
     sticks:   dense  smooth     PW     G-vecs:    dense   smooth      PW
     Min          55      55     18                 1158     1158     222
     Max          56      56     19                 1161     1161     224
     Sum        1003    1003    337                20875    20875    4015
 
     Using Slab Decomposition
 

     Title: 
     default                                                                    


     bravais-lattice index     =            2
     lattice parameter (alat)  =      10.1899  a.u.
     unit-cell volume          =     264.5151 (a.u.)^3
     number of atoms/cell      =            2
     number of atomic types    =            1
     number of electrons       =         8.00
     number of Kohn-Sham states=            4
     kinetic-energy cutoff     =      70.0000  Ry
     charge density cutoff     =     280.0000  Ry
     Exchange-correlation= PW
                           (   1   4   0   0   0   0   0)

     celldm(1)=  10.189905  celldm(2)=   0.000000  celldm(3)=   0.000000
     celldm(4)=   0.000000  celldm(5)=   0.000000  celldm(6)=   0.000000

     crystal axes: (cart. coord. in units of alat)
               a(1) = (  -0.500000   0.000000   0.500000 )  
               a(2) = (   0.000000   0.500000   0.500000 )  
               a(3) = (  -0.500000   0.500000   0.000000 )  

     reciprocal axes: (cart. coord. in units 2 pi/alat)
               b(1) = ( -1.000000 -1.000000  1.000000 )  
               b(2) = (  1.000000  1.000000  1.000000 )  
               b(3) = ( -1.000000  1.000000 -1.000000 )  


     PseudoPot. # 1 for Si read from file:
     ./pseudos/Si.nc.UPF
     MD5 check sum: 9e2d726316af3d4752eea8ab0afbb951
     Pseudo is Norm-conserving + core correction, Zval =  4.0
     Generated using ONCVPSP code by D. R. Hamann
     Using radial grid of 1510 points,  6 beta functions with: 
                l(1) =   0
                l(2) =   0
                l(3) =   1
                l(4) =   1
                l(5) =   2
                l(6) =   2

     atomic species   valence    mass     pseudopotential
        Si             4.00    28.08550     Si( 1.00)

     48 Sym. Ops., with inversion, found



   Cartesian axes

     site n.     atom                  positions (alat units)
         1           Si  tau(   1) = (   0.0000000   0.0000000   0.0000000  )
         2           Si  tau(   2) = (  -0.2500000   0.2500000   0.2500000  )

     number of k points=   182

     Number of k-points >= 100: set verbosity='high' to print them.

     Dense  grid:    20875 G-vectors     FFT dimensions: (  40,  40,  40)

     Estimated max dynamical RAM per process >       2.04 MB

     Estimated total dynamical RAM >      36.64 MB

     The potential is recalculated from file :
     /fastscratch/tsievers/QE_TMP_DIR/_ph0/si_ph_bench_poolsize_18_n_procs_18_0.save/charge-density

     Starting wfcs are    8 atomic wfcs

     Band Structure Calculation
     Davidson diagonalization with overlap

     ethr =  1.25E-10,  avg # of iterations = 12.9

     total cpu time spent up to now is       14.4 secs

     End of band structure calculation

     Number of k-points >= 100: set verbosity='high' to print the bands.

     highest occupied level (ev):     6.1106

     Writing config to output data dir /fastscratch/tsievers/QE_TMP_DIR/_ph0/si_ph_bench_poolsize_18_n_procs_18_0.save/

     default                                                                    

     bravais-lattice index     =            2
     lattice parameter (alat)  =      10.1899  a.u.
     unit-cell volume          =     264.5151 (a.u.)^3
     number of atoms/cell      =            2
     number of atomic types    =            1
     kinetic-energy cut-off    =      70.0000  Ry
     charge density cut-off    =     280.0000  Ry
     convergence threshold     =      1.0E-15
     beta                      =       0.7000
     number of iterations used =            4
     Exchange-correlation= PW
                           (   1   4   0   0   0   0   0)


     celldm(1)=   10.18990  celldm(2)=    0.00000  celldm(3)=    0.00000
     celldm(4)=    0.00000  celldm(5)=    0.00000  celldm(6)=    0.00000

     crystal axes: (cart. coord. in units of alat)
               a(1) = ( -0.5000  0.0000  0.5000 )  
               a(2) = (  0.0000  0.5000  0.5000 )  
               a(3) = ( -0.5000  0.5000  0.0000 )  

     reciprocal axes: (cart. coord. in units 2 pi/alat)
               b(1) = ( -1.0000 -1.0000  1.0000 )  
               b(2) = (  1.0000  1.0000  1.0000 )  
               b(3) = ( -1.0000  1.0000 -1.0000 )  


     Atoms inside the unit cell: 

     Cartesian axes

     site n.  atom      mass           positions (alat units)
        1     Si  28.0855   tau(    1) = (    0.00000    0.00000    0.00000  )
        2     Si  28.0855   tau(    2) = (   -0.25000    0.25000    0.25000  )

     Computing dynamical matrix for 
                    q = (   0.5000000  -0.5000000   0.5000000 )
 
     13 Sym.Ops. (with q -> -q+G )


     G cutoff =  736.4420  (   1161 G-vectors)     FFT grid: ( 40, 40, 40)
     number of k points=   182

     PseudoPot. # 1 for Si read from file:
     ./pseudos/Si.nc.UPF
     MD5 check sum: 9e2d726316af3d4752eea8ab0afbb951
     Pseudo is Norm-conserving + core correction, Zval =  4.0
     Generated using ONCVPSP code by D. R. Hamann
     Using radial grid of 1510 points,  6 beta functions with: 
                l(1) =   0
                l(2) =   0
                l(3) =   1
                l(4) =   1
                l(5) =   2
                l(6) =   2


     Atomic displacements:
     There are    4 irreducible representations

     Representation     1      1 modes -  To be done

     Representation     2      1 modes -  To be done

     Representation     3      2 modes -  To be done

     Representation     4      2 modes -  To be done



     Alpha used in Ewald sum =   2.8000
     PHONON       :   2m50.44s CPU   3m14.88s WALL



     Representation #   1 mode #   1

     Self-consistent Calculation

      iter #   1 total cpu time :   195.5 secs   av.it.:   5.8
      thresh= 1.000E-02 alpha_mix =  0.700 |ddv_scf|^2 =  1.725E-06

      iter #   2 total cpu time :   196.4 secs   av.it.:  10.2
      thresh= 1.313E-04 alpha_mix =  0.700 |ddv_scf|^2 =  1.592E-06

      iter #   3 total cpu time :   197.9 secs   av.it.:   9.6
      thresh= 1.262E-04 alpha_mix =  0.700 |ddv_scf|^2 =  2.130E-10

      iter #   4 total cpu time :   199.6 secs   av.it.:  10.3
      thresh= 1.460E-06 alpha_mix =  0.700 |ddv_scf|^2 =  3.671E-12

      iter #   5 total cpu time :   200.5 secs   av.it.:  10.1
      thresh= 1.916E-07 alpha_mix =  0.700 |ddv_scf|^2 =  5.246E-14

      iter #   6 total cpu time :   201.4 secs   av.it.:  10.1
      thresh= 2.290E-08 alpha_mix =  0.700 |ddv_scf|^2 =  6.876E-16

     End of self-consistent calculation

     Convergence has been achieved 


     Representation #   2 mode #   2

     Self-consistent Calculation

      iter #   1 total cpu time :   202.2 secs   av.it.:   6.7
      thresh= 1.000E-02 alpha_mix =  0.700 |ddv_scf|^2 =  2.635E-05

      iter #   2 total cpu time :   204.8 secs   av.it.:  10.3
      thresh= 5.133E-04 alpha_mix =  0.700 |ddv_scf|^2 =  8.609E-05

      iter #   3 total cpu time :   205.7 secs   av.it.:   9.3
      thresh= 9.278E-04 alpha_mix =  0.700 |ddv_scf|^2 =  5.088E-09

      iter #   4 total cpu time :   206.6 secs   av.it.:  10.0
      thresh= 7.133E-06 alpha_mix =  0.700 |ddv_scf|^2 =  1.069E-10

      iter #   5 total cpu time :   207.5 secs   av.it.:  10.5
      thresh= 1.034E-06 alpha_mix =  0.700 |ddv_scf|^2 =  5.333E-12

      iter #   6 total cpu time :   208.5 secs   av.it.:  10.3
      thresh= 2.309E-07 alpha_mix =  0.700 |ddv_scf|^2 =  1.503E-13

      iter #   7 total cpu time :   209.3 secs   av.it.:   9.7
      thresh= 3.877E-08 alpha_mix =  0.700 |ddv_scf|^2 =  2.750E-17

     End of self-consistent calculation

     Convergence has been achieved 


     Representation #   3 modes #   3   4

     Self-consistent Calculation

      iter #   1 total cpu time :   211.2 secs   av.it.:   6.1
      thresh= 1.000E-02 alpha_mix =  0.700 |ddv_scf|^2 =  6.089E-08

      iter #   2 total cpu time :   214.7 secs   av.it.:  11.5
      thresh= 2.468E-05 alpha_mix =  0.700 |ddv_scf|^2 =  5.162E-09

      iter #   3 total cpu time :   216.6 secs   av.it.:  11.3
      thresh= 7.185E-06 alpha_mix =  0.700 |ddv_scf|^2 =  3.456E-11

      iter #   4 total cpu time :   219.1 secs   av.it.:  11.4
      thresh= 5.879E-07 alpha_mix =  0.700 |ddv_scf|^2 =  3.866E-14

      iter #   5 total cpu time :   221.0 secs   av.it.:  11.7
      thresh= 1.966E-08 alpha_mix =  0.700 |ddv_scf|^2 =  5.081E-16

     End of self-consistent calculation

     Convergence has been achieved 


     Representation #   4 modes #   5   6

     Self-consistent Calculation

      iter #   1 total cpu time :   223.0 secs   av.it.:   5.5
      thresh= 1.000E-02 alpha_mix =  0.700 |ddv_scf|^2 =  6.911E-09

      iter #   2 total cpu time :   225.0 secs   av.it.:  11.5
      thresh= 8.313E-06 alpha_mix =  0.700 |ddv_scf|^2 =  1.812E-10

      iter #   3 total cpu time :   227.9 secs   av.it.:  11.5
      thresh= 1.346E-06 alpha_mix =  0.700 |ddv_scf|^2 =  1.114E-11

      iter #   4 total cpu time :   229.9 secs   av.it.:  11.5
      thresh= 3.337E-07 alpha_mix =  0.700 |ddv_scf|^2 =  4.766E-14

      iter #   5 total cpu time :   232.0 secs   av.it.:  11.5
      thresh= 2.183E-08 alpha_mix =  0.700 |ddv_scf|^2 =  7.612E-16

     End of self-consistent calculation

     Convergence has been achieved 
 
     Number of q in the star =    4
     List of q in the star:
          1   0.500000000  -0.500000000   0.500000000
          2   0.500000000   0.500000000   0.500000000
          3  -0.500000000   0.500000000   0.500000000
          4   0.500000000   0.500000000  -0.500000000

     Diagonalizing the dynamical matrix

     q = (    0.500000000  -0.500000000   0.500000000 ) 

 **************************************************************************
     freq (    1) =       3.157224 [THz] =     105.313657 [cm-1]
     freq (    2) =       3.157224 [THz] =     105.313657 [cm-1]
     freq (    3) =      11.169099 [THz] =     372.561033 [cm-1]
     freq (    4) =      12.390650 [THz] =     413.307580 [cm-1]
     freq (    5) =      14.704268 [THz] =     490.481577 [cm-1]
     freq (    6) =      14.704268 [THz] =     490.481577 [cm-1]
 **************************************************************************

     Calculation of q =    0.0000000   0.3333333   0.0000000
 
     Parallelization info
     --------------------
     sticks:   dense  smooth     PW     G-vecs:    dense   smooth      PW
     Min          55      55     17                 1158     1158     206
     Max          56      56     18                 1161     1161     209
     Sum        1003    1003    313                20875    20875    3719
 
     Using Slab Decomposition
 

     Title: 
     default                                                                    


     bravais-lattice index     =            2
     lattice parameter (alat)  =      10.1899  a.u.
     unit-cell volume          =     264.5151 (a.u.)^3
     number of atoms/cell      =            2
     number of atomic types    =            1
     number of electrons       =         8.00
     number of Kohn-Sham states=            4
     kinetic-energy cutoff     =      70.0000  Ry
     charge density cutoff     =     280.0000  Ry
     Exchange-correlation= PW
                           (   1   4   0   0   0   0   0)

     celldm(1)=  10.189905  celldm(2)=   0.000000  celldm(3)=   0.000000
     celldm(4)=   0.000000  celldm(5)=   0.000000  celldm(6)=   0.000000

     crystal axes: (cart. coord. in units of alat)
               a(1) = (  -0.500000   0.000000   0.500000 )  
               a(2) = (   0.000000   0.500000   0.500000 )  
               a(3) = (  -0.500000   0.500000   0.000000 )  

     reciprocal axes: (cart. coord. in units 2 pi/alat)
               b(1) = ( -1.000000 -1.000000  1.000000 )  
               b(2) = (  1.000000  1.000000  1.000000 )  
               b(3) = ( -1.000000  1.000000 -1.000000 )  


     PseudoPot. # 1 for Si read from file:
     ./pseudos/Si.nc.UPF
     MD5 check sum: 9e2d726316af3d4752eea8ab0afbb951
     Pseudo is Norm-conserving + core correction, Zval =  4.0
     Generated using ONCVPSP code by D. R. Hamann
     Using radial grid of 1510 points,  6 beta functions with: 
                l(1) =   0
                l(2) =   0
                l(3) =   1
                l(4) =   1
                l(5) =   2
                l(6) =   2

     atomic species   valence    mass     pseudopotential
        Si             4.00    28.08550     Si( 1.00)

     48 Sym. Ops., with inversion, found



   Cartesian axes

     site n.     atom                  positions (alat units)
         1           Si  tau(   1) = (   0.0000000   0.0000000   0.0000000  )
         2           Si  tau(   2) = (  -0.2500000   0.2500000   0.2500000  )

     number of k points=   252

     Number of k-points >= 100: set verbosity='high' to print them.

     Dense  grid:    20875 G-vectors     FFT dimensions: (  40,  40,  40)

     Estimated max dynamical RAM per process >       2.01 MB

     Estimated total dynamical RAM >      36.16 MB

     The potential is recalculated from file :
     /fastscratch/tsievers/QE_TMP_DIR/_ph0/si_ph_bench_poolsize_18_n_procs_18_0.save/charge-density

     Starting wfcs are    8 atomic wfcs

     Band Structure Calculation
     Davidson diagonalization with overlap

     ethr =  1.25E-10,  avg # of iterations = 12.8

     total cpu time spent up to now is       17.6 secs

     End of band structure calculation

     Number of k-points >= 100: set verbosity='high' to print the bands.

     highest occupied level (ev):     6.1106

     Writing config to output data dir /fastscratch/tsievers/QE_TMP_DIR/_ph0/si_ph_bench_poolsize_18_n_procs_18_0.save/

     default                                                                    

     bravais-lattice index     =            2
     lattice parameter (alat)  =      10.1899  a.u.
     unit-cell volume          =     264.5151 (a.u.)^3
     number of atoms/cell      =            2
     number of atomic types    =            1
     kinetic-energy cut-off    =      70.0000  Ry
     charge density cut-off    =     280.0000  Ry
     convergence threshold     =      1.0E-15
     beta                      =       0.7000
     number of iterations used =            4
     Exchange-correlation= PW
                           (   1   4   0   0   0   0   0)


     celldm(1)=   10.18990  celldm(2)=    0.00000  celldm(3)=    0.00000
     celldm(4)=    0.00000  celldm(5)=    0.00000  celldm(6)=    0.00000

     crystal axes: (cart. coord. in units of alat)
               a(1) = ( -0.5000  0.0000  0.5000 )  
               a(2) = (  0.0000  0.5000  0.5000 )  
               a(3) = ( -0.5000  0.5000  0.0000 )  

     reciprocal axes: (cart. coord. in units 2 pi/alat)
               b(1) = ( -1.0000 -1.0000  1.0000 )  
               b(2) = (  1.0000  1.0000  1.0000 )  
               b(3) = ( -1.0000  1.0000 -1.0000 )  


     Atoms inside the unit cell: 

     Cartesian axes

     site n.  atom      mass           positions (alat units)
        1     Si  28.0855   tau(    1) = (    0.00000    0.00000    0.00000  )
        2     Si  28.0855   tau(    2) = (   -0.25000    0.25000    0.25000  )

     Computing dynamical matrix for 
                    q = (   0.0000000   0.3333333   0.0000000 )
 
      8 Sym.Ops. (no q -> -q+G )


     G cutoff =  736.4420  (   1161 G-vectors)     FFT grid: ( 40, 40, 40)
     number of k points=   252

     PseudoPot. # 1 for Si read from file:
     ./pseudos/Si.nc.UPF
     MD5 check sum: 9e2d726316af3d4752eea8ab0afbb951
     Pseudo is Norm-conserving + core correction, Zval =  4.0
     Generated using ONCVPSP code by D. R. Hamann
     Using radial grid of 1510 points,  6 beta functions with: 
                l(1) =   0
                l(2) =   0
                l(3) =   1
                l(4) =   1
                l(5) =   2
                l(6) =   2

     Mode symmetry, C_4v (4mm)  point group:


     Atomic displacements:
     There are    4 irreducible representations

     Representation     1      1 modes -  To be done

     Representation     2      1 modes -  To be done

     Representation     3      2 modes -  To be done

     Representation     4      2 modes -  To be done



     Alpha used in Ewald sum =   2.8000
     PHONON       :   3m22.88s CPU   3m56.07s WALL



     Representation #   1 mode #   1

     Self-consistent Calculation

      iter #   1 total cpu time :   238.7 secs   av.it.:   6.8
      thresh= 1.000E-02 alpha_mix =  0.700 |ddv_scf|^2 =  1.144E-03

      iter #   2 total cpu time :   239.9 secs   av.it.:   9.4
      thresh= 3.382E-03 alpha_mix =  0.700 |ddv_scf|^2 =  3.487E-02

      iter #   3 total cpu time :   240.9 secs   av.it.:   8.1
      thresh= 1.000E-02 alpha_mix =  0.700 |ddv_scf|^2 =  3.208E-08

      iter #   4 total cpu time :   242.1 secs   av.it.:   9.2
      thresh= 1.791E-05 alpha_mix =  0.700 |ddv_scf|^2 =  1.535E-09

      iter #   5 total cpu time :   243.2 secs   av.it.:   8.9
      thresh= 3.919E-06 alpha_mix =  0.700 |ddv_scf|^2 =  4.992E-10

      iter #   6 total cpu time :   244.2 secs   av.it.:   8.4
      thresh= 2.234E-06 alpha_mix =  0.700 |ddv_scf|^2 =  6.802E-13

      iter #   7 total cpu time :   245.3 secs   av.it.:   8.7
      thresh= 8.248E-08 alpha_mix =  0.700 |ddv_scf|^2 =  1.529E-14

      iter #   8 total cpu time :   246.4 secs   av.it.:   8.7
      thresh= 1.236E-08 alpha_mix =  0.700 |ddv_scf|^2 =  1.894E-16

     End of self-consistent calculation

     Convergence has been achieved 


     Representation #   2 mode #   2

     Self-consistent Calculation

      iter #   1 total cpu time :   247.3 secs   av.it.:   5.9
      thresh= 1.000E-02 alpha_mix =  0.700 |ddv_scf|^2 =  1.746E-07

      iter #   2 total cpu time :   248.6 secs   av.it.:  10.7
      thresh= 4.178E-05 alpha_mix =  0.700 |ddv_scf|^2 =  2.823E-08

      iter #   3 total cpu time :   249.8 secs   av.it.:  10.5
      thresh= 1.680E-05 alpha_mix =  0.700 |ddv_scf|^2 =  3.571E-10

      iter #   4 total cpu time :   251.1 secs   av.it.:  10.5
      thresh= 1.890E-06 alpha_mix =  0.700 |ddv_scf|^2 =  1.483E-11

      iter #   5 total cpu time :   252.3 secs   av.it.:  10.6
      thresh= 3.851E-07 alpha_mix =  0.700 |ddv_scf|^2 =  3.379E-14

      iter #   6 total cpu time :   253.6 secs   av.it.:  10.7
      thresh= 1.838E-08 alpha_mix =  0.700 |ddv_scf|^2 =  6.750E-16

     End of self-consistent calculation

     Convergence has been achieved 


     Representation #   3 modes #   3   4

     Self-consistent Calculation

      iter #   1 total cpu time :   255.3 secs   av.it.:   6.0
      thresh= 1.000E-02 alpha_mix =  0.700 |ddv_scf|^2 =  3.160E-08

      iter #   2 total cpu time :   258.0 secs   av.it.:  11.6
      thresh= 1.778E-05 alpha_mix =  0.700 |ddv_scf|^2 =  2.881E-09

      iter #   3 total cpu time :   260.7 secs   av.it.:  11.4
      thresh= 5.367E-06 alpha_mix =  0.700 |ddv_scf|^2 =  3.357E-11

      iter #   4 total cpu time :   263.6 secs   av.it.:  11.6
      thresh= 5.794E-07 alpha_mix =  0.700 |ddv_scf|^2 =  3.776E-13

      iter #   5 total cpu time :   266.2 secs   av.it.:  11.5
      thresh= 6.145E-08 alpha_mix =  0.700 |ddv_scf|^2 =  6.269E-15

      iter #   6 total cpu time :   269.9 secs   av.it.:  11.9
      thresh= 7.918E-09 alpha_mix =  0.700 |ddv_scf|^2 =  2.551E-17

     End of self-consistent calculation

     Convergence has been achieved 


     Representation #   4 modes #   5   6

     Self-consistent Calculation

      iter #   1 total cpu time :   272.7 secs   av.it.:   6.0
      thresh= 1.000E-02 alpha_mix =  0.700 |ddv_scf|^2 =  4.166E-08

      iter #   2 total cpu time :   275.6 secs   av.it.:  11.5
      thresh= 2.041E-05 alpha_mix =  0.700 |ddv_scf|^2 =  3.928E-09

      iter #   3 total cpu time :   278.2 secs   av.it.:  11.2
      thresh= 6.268E-06 alpha_mix =  0.700 |ddv_scf|^2 =  3.554E-11

      iter #   4 total cpu time :   280.9 secs   av.it.:  11.5
      thresh= 5.962E-07 alpha_mix =  0.700 |ddv_scf|^2 =  2.416E-13

      iter #   5 total cpu time :   283.5 secs   av.it.:  11.4
      thresh= 4.915E-08 alpha_mix =  0.700 |ddv_scf|^2 =  5.737E-15

      iter #   6 total cpu time :   286.1 secs   av.it.:  11.9
      thresh= 7.574E-09 alpha_mix =  0.700 |ddv_scf|^2 =  2.429E-17

     End of self-consistent calculation

     Convergence has been achieved 
 
     Number of q in the star =    6
     List of q in the star:
          1   0.000000000   0.333333333   0.000000000
          2   0.333333333   0.000000000   0.000000000
          3   0.000000000   0.000000000   0.333333333
          4   0.000000000  -0.333333333   0.000000000
          5  -0.333333333   0.000000000   0.000000000
          6   0.000000000   0.000000000  -0.333333333

     Diagonalizing the dynamical matrix

     q = (    0.000000000   0.333333333   0.000000000 ) 

 **************************************************************************
     freq (    1) =       2.948489 [THz] =      98.351011 [cm-1]
     freq (    2) =       2.948489 [THz] =      98.351011 [cm-1]
     freq (    3) =       4.953354 [THz] =     165.226117 [cm-1]
     freq (    4) =      14.670284 [THz] =     489.347993 [cm-1]
     freq (    5) =      14.670284 [THz] =     489.347993 [cm-1]
     freq (    6) =      15.142896 [THz] =     505.112647 [cm-1]
 **************************************************************************

     Mode symmetry, C_4v (4mm)  point group:

     freq (   1-   2) =         98.4  [cm-1]   --> E    G_5 D_5       
     freq (   3-   3) =        165.2  [cm-1]   --> A_1  G_1 D_1       
     freq (   4-   5) =        489.3  [cm-1]   --> E    G_5 D_5       
     freq (   6-   6) =        505.1  [cm-1]   --> B_2  G_4 D_2'      

     Calculation of q =   -0.1666667   0.5000000  -0.1666667
 
     Parallelization info
     --------------------
     sticks:   dense  smooth     PW     G-vecs:    dense   smooth      PW
     Min          55      55     17                 1158     1158     211
     Max          56      56     18                 1161     1161     216
     Sum        1003    1003    313                20875    20875    3839
 
     Using Slab Decomposition
 

     Title: 
     default                                                                    


     bravais-lattice index     =            2
     lattice parameter (alat)  =      10.1899  a.u.
     unit-cell volume          =     264.5151 (a.u.)^3
     number of atoms/cell      =            2
     number of atomic types    =            1
     number of electrons       =         8.00
     number of Kohn-Sham states=            4
     kinetic-energy cutoff     =      70.0000  Ry
     charge density cutoff     =     280.0000  Ry
     Exchange-correlation= PW
                           (   1   4   0   0   0   0   0)

     celldm(1)=  10.189905  celldm(2)=   0.000000  celldm(3)=   0.000000
     celldm(4)=   0.000000  celldm(5)=   0.000000  celldm(6)=   0.000000

     crystal axes: (cart. coord. in units of alat)
               a(1) = (  -0.500000   0.000000   0.500000 )  
               a(2) = (   0.000000   0.500000   0.500000 )  
               a(3) = (  -0.500000   0.500000   0.000000 )  

     reciprocal axes: (cart. coord. in units 2 pi/alat)
               b(1) = ( -1.000000 -1.000000  1.000000 )  
               b(2) = (  1.000000  1.000000  1.000000 )  
               b(3) = ( -1.000000  1.000000 -1.000000 )  


     PseudoPot. # 1 for Si read from file:
     ./pseudos/Si.nc.UPF
     MD5 check sum: 9e2d726316af3d4752eea8ab0afbb951
     Pseudo is Norm-conserving + core correction, Zval =  4.0
     Generated using ONCVPSP code by D. R. Hamann
     Using radial grid of 1510 points,  6 beta functions with: 
                l(1) =   0
                l(2) =   0
                l(3) =   1
                l(4) =   1
                l(5) =   2
                l(6) =   2

     atomic species   valence    mass     pseudopotential
        Si             4.00    28.08550     Si( 1.00)

     48 Sym. Ops., with inversion, found



   Cartesian axes

     site n.     atom                  positions (alat units)
         1           Si  tau(   1) = (   0.0000000   0.0000000   0.0000000  )
         2           Si  tau(   2) = (  -0.2500000   0.2500000   0.2500000  )

     number of k points=   936

     Number of k-points >= 100: set verbosity='high' to print them.

     Dense  grid:    20875 G-vectors     FFT dimensions: (  40,  40,  40)

     Estimated max dynamical RAM per process >       2.02 MB

     Estimated total dynamical RAM >      36.36 MB

     The potential is recalculated from file :
     /fastscratch/tsievers/QE_TMP_DIR/_ph0/si_ph_bench_poolsize_18_n_procs_18_0.save/charge-density

     Starting wfcs are    8 atomic wfcs

     Band Structure Calculation
     Davidson diagonalization with overlap

     ethr =  1.25E-10,  avg # of iterations = 12.8

     total cpu time spent up to now is       34.6 secs

     End of band structure calculation

     Number of k-points >= 100: set verbosity='high' to print the bands.

     highest occupied level (ev):     6.1106

     Writing config to output data dir /fastscratch/tsievers/QE_TMP_DIR/_ph0/si_ph_bench_poolsize_18_n_procs_18_0.save/

     default                                                                    

     bravais-lattice index     =            2
     lattice parameter (alat)  =      10.1899  a.u.
     unit-cell volume          =     264.5151 (a.u.)^3
     number of atoms/cell      =            2
     number of atomic types    =            1
     kinetic-energy cut-off    =      70.0000  Ry
     charge density cut-off    =     280.0000  Ry
     convergence threshold     =      1.0E-15
     beta                      =       0.7000
     number of iterations used =            4
     Exchange-correlation= PW
                           (   1   4   0   0   0   0   0)


     celldm(1)=   10.18990  celldm(2)=    0.00000  celldm(3)=    0.00000
     celldm(4)=    0.00000  celldm(5)=    0.00000  celldm(6)=    0.00000

     crystal axes: (cart. coord. in units of alat)
               a(1) = ( -0.5000  0.0000  0.5000 )  
               a(2) = (  0.0000  0.5000  0.5000 )  
               a(3) = ( -0.5000  0.5000  0.0000 )  

     reciprocal axes: (cart. coord. in units 2 pi/alat)
               b(1) = ( -1.0000 -1.0000  1.0000 )  
[...]
      thresh= 1.000E-02 alpha_mix =  0.700 |ddv_scf|^2 =  2.953E-06

      iter #   2 total cpu time :  2018.4 secs   av.it.:  11.1
      thresh= 1.719E-04 alpha_mix =  0.700 |ddv_scf|^2 =  3.745E-06

      iter #   3 total cpu time :  2022.4 secs   av.it.:  10.2
      thresh= 1.935E-04 alpha_mix =  0.700 |ddv_scf|^2 =  4.286E-08

      iter #   4 total cpu time :  2026.6 secs   av.it.:  10.4
      thresh= 2.070E-05 alpha_mix =  0.700 |ddv_scf|^2 =  2.156E-10

      iter #   5 total cpu time :  2030.8 secs   av.it.:  10.8
      thresh= 1.468E-06 alpha_mix =  0.700 |ddv_scf|^2 =  5.468E-12

      iter #   6 total cpu time :  2035.1 secs   av.it.:  10.9
      thresh= 2.338E-07 alpha_mix =  0.700 |ddv_scf|^2 =  3.206E-14

      iter #   7 total cpu time :  2039.2 secs   av.it.:  10.7
      thresh= 1.791E-08 alpha_mix =  0.700 |ddv_scf|^2 =  3.578E-15

      iter #   8 total cpu time :  2043.4 secs   av.it.:  10.8
      thresh= 5.982E-09 alpha_mix =  0.700 |ddv_scf|^2 =  1.396E-16

     End of self-consistent calculation

     Convergence has been achieved 


     Representation #   6 mode #   6

     Self-consistent Calculation

      iter #   1 total cpu time :  2047.8 secs   av.it.:   6.3
      thresh= 1.000E-02 alpha_mix =  0.700 |ddv_scf|^2 =  1.388E-06

      iter #   2 total cpu time :  2052.0 secs   av.it.:  11.0
      thresh= 1.178E-04 alpha_mix =  0.700 |ddv_scf|^2 =  1.522E-06

      iter #   3 total cpu time :  2056.0 secs   av.it.:  10.2
      thresh= 1.234E-04 alpha_mix =  0.700 |ddv_scf|^2 =  3.726E-08

      iter #   4 total cpu time :  2060.0 secs   av.it.:  10.3
      thresh= 1.930E-05 alpha_mix =  0.700 |ddv_scf|^2 =  1.216E-10

      iter #   5 total cpu time :  2064.2 secs   av.it.:  10.7
      thresh= 1.103E-06 alpha_mix =  0.700 |ddv_scf|^2 =  2.289E-12

      iter #   6 total cpu time :  2068.6 secs   av.it.:  10.8
      thresh= 1.513E-07 alpha_mix =  0.700 |ddv_scf|^2 =  1.071E-14

      iter #   7 total cpu time :  2072.8 secs   av.it.:  10.8
      thresh= 1.035E-08 alpha_mix =  0.700 |ddv_scf|^2 =  6.107E-16

     End of self-consistent calculation

     Convergence has been achieved 
 
     Number of q in the star =   24
     List of q in the star:
          1   0.500000000  -0.166666667   0.833333333
          2   0.833333333   0.166666667   0.500000000
          3   0.500000000   0.166666667   0.833333333
          4  -0.833333333  -0.166666667   0.500000000
          5  -0.833333333  -0.166666667  -0.500000000
          6  -0.500000000  -0.166666667  -0.833333333
          7   0.833333333  -0.166666667   0.500000000
          8  -0.500000000  -0.166666667   0.833333333
          9  -0.833333333   0.166666667   0.500000000
         10   0.833333333   0.166666667  -0.500000000
         11   0.833333333  -0.166666667  -0.500000000
         12   0.500000000   0.166666667  -0.833333333
         13  -0.500000000   0.166666667   0.833333333
         14  -0.500000000   0.166666667  -0.833333333
         15  -0.833333333   0.166666667  -0.500000000
         16   0.833333333  -0.500000000   0.166666667
         17   0.833333333   0.500000000  -0.166666667
         18  -0.833333333  -0.500000000  -0.166666667
         19  -0.833333333   0.500000000   0.166666667
         20   0.166666667  -0.500000000   0.833333333
         21  -0.166666667   0.500000000   0.833333333
         22   0.166666667   0.500000000  -0.833333333
         23  -0.166666667  -0.500000000  -0.833333333
         24  -0.500000000   0.833333333   0.166666667

     Diagonalizing the dynamical matrix

     q = (    0.500000000  -0.166666667   0.833333333 ) 

 **************************************************************************
     freq (    1) =       5.052032 [THz] =     168.517635 [cm-1]
     freq (    2) =       6.066520 [THz] =     202.357317 [cm-1]
     freq (    3) =       9.812708 [THz] =     327.316722 [cm-1]
     freq (    4) =      11.453332 [THz] =     382.042038 [cm-1]
     freq (    5) =      14.042018 [THz] =     468.391305 [cm-1]
     freq (    6) =      14.270724 [THz] =     476.020127 [cm-1]
 **************************************************************************

     Calculation of q =   -0.3333333  -1.0000000   0.0000000
 
     Parallelization info
     --------------------
     sticks:   dense  smooth     PW     G-vecs:    dense   smooth      PW
     Min          55      55     19                 1158     1158     236
     Max          56      56     20                 1161     1161     239
     Sum        1003    1003    349                20875    20875    4279
 
     Using Slab Decomposition
 

     Title: 
     default                                                                    


     bravais-lattice index     =            2
     lattice parameter (alat)  =      10.1899  a.u.
     unit-cell volume          =     264.5151 (a.u.)^3
     number of atoms/cell      =            2
     number of atomic types    =            1
     number of electrons       =         8.00
     number of Kohn-Sham states=            4
     kinetic-energy cutoff     =      70.0000  Ry
     charge density cutoff     =     280.0000  Ry
     Exchange-correlation= PW
                           (   1   4   0   0   0   0   0)

     celldm(1)=  10.189905  celldm(2)=   0.000000  celldm(3)=   0.000000
     celldm(4)=   0.000000  celldm(5)=   0.000000  celldm(6)=   0.000000

     crystal axes: (cart. coord. in units of alat)
               a(1) = (  -0.500000   0.000000   0.500000 )  
               a(2) = (   0.000000   0.500000   0.500000 )  
               a(3) = (  -0.500000   0.500000   0.000000 )  

     reciprocal axes: (cart. coord. in units 2 pi/alat)
               b(1) = ( -1.000000 -1.000000  1.000000 )  
               b(2) = (  1.000000  1.000000  1.000000 )  
               b(3) = ( -1.000000  1.000000 -1.000000 )  


     PseudoPot. # 1 for Si read from file:
     ./pseudos/Si.nc.UPF
     MD5 check sum: 9e2d726316af3d4752eea8ab0afbb951
     Pseudo is Norm-conserving + core correction, Zval =  4.0
     Generated using ONCVPSP code by D. R. Hamann
     Using radial grid of 1510 points,  6 beta functions with: 
                l(1) =   0
                l(2) =   0
                l(3) =   1
                l(4) =   1
                l(5) =   2
                l(6) =   2

     atomic species   valence    mass     pseudopotential
        Si             4.00    28.08550     Si( 1.00)

     48 Sym. Ops., with inversion, found



   Cartesian axes

     site n.     atom                  positions (alat units)
         1           Si  tau(   1) = (   0.0000000   0.0000000   0.0000000  )
         2           Si  tau(   2) = (  -0.2500000   0.2500000   0.2500000  )

     number of k points=   432

     Number of k-points >= 100: set verbosity='high' to print them.

     Dense  grid:    20875 G-vectors     FFT dimensions: (  40,  40,  40)

     Estimated max dynamical RAM per process >       2.04 MB

     Estimated total dynamical RAM >      36.81 MB

     The potential is recalculated from file :
     /fastscratch/tsievers/QE_TMP_DIR/_ph0/si_ph_bench_poolsize_18_n_procs_18_0.save/charge-density

     Starting wfcs are    8 atomic wfcs

     Band Structure Calculation
     Davidson diagonalization with overlap

     ethr =  1.25E-10,  avg # of iterations = 12.8

     total cpu time spent up to now is      128.8 secs

     End of band structure calculation

     Number of k-points >= 100: set verbosity='high' to print the bands.

     highest occupied level (ev):     6.1106

     Writing config to output data dir /fastscratch/tsievers/QE_TMP_DIR/_ph0/si_ph_bench_poolsize_18_n_procs_18_0.save/

     default                                                                    

     bravais-lattice index     =            2
     lattice parameter (alat)  =      10.1899  a.u.
     unit-cell volume          =     264.5151 (a.u.)^3
     number of atoms/cell      =            2
     number of atomic types    =            1
     kinetic-energy cut-off    =      70.0000  Ry
     charge density cut-off    =     280.0000  Ry
     convergence threshold     =      1.0E-15
     beta                      =       0.7000
     number of iterations used =            4
     Exchange-correlation= PW
                           (   1   4   0   0   0   0   0)


     celldm(1)=   10.18990  celldm(2)=    0.00000  celldm(3)=    0.00000
     celldm(4)=    0.00000  celldm(5)=    0.00000  celldm(6)=    0.00000

     crystal axes: (cart. coord. in units of alat)
               a(1) = ( -0.5000  0.0000  0.5000 )  
               a(2) = (  0.0000  0.5000  0.5000 )  
               a(3) = ( -0.5000  0.5000  0.0000 )  

     reciprocal axes: (cart. coord. in units 2 pi/alat)
               b(1) = ( -1.0000 -1.0000  1.0000 )  
               b(2) = (  1.0000  1.0000  1.0000 )  
               b(3) = ( -1.0000  1.0000 -1.0000 )  


     Atoms inside the unit cell: 

     Cartesian axes

     site n.  atom      mass           positions (alat units)
        1     Si  28.0855   tau(    1) = (    0.00000    0.00000    0.00000  )
        2     Si  28.0855   tau(    2) = (   -0.25000    0.25000    0.25000  )

     Computing dynamical matrix for 
                    q = (  -0.3333333  -1.0000000   0.0000000 )
 
      4 Sym.Ops. (no q -> -q+G )


     G cutoff =  736.4420  (   1161 G-vectors)     FFT grid: ( 40, 40, 40)
     number of k points=   432

     PseudoPot. # 1 for Si read from file:
     ./pseudos/Si.nc.UPF
     MD5 check sum: 9e2d726316af3d4752eea8ab0afbb951
     Pseudo is Norm-conserving + core correction, Zval =  4.0
     Generated using ONCVPSP code by D. R. Hamann
     Using radial grid of 1510 points,  6 beta functions with: 
                l(1) =   0
                l(2) =   0
                l(3) =   1
                l(4) =   1
                l(5) =   2
                l(6) =   2


     Atomic displacements:
     There are    3 irreducible representations

     Representation     1      2 modes -  To be done

     Representation     2      2 modes -  To be done

     Representation     3      2 modes -  To be done



     Alpha used in Ewald sum =   2.8000
     PHONON       :  30m26.69s CPU  34m39.83s WALL



     Representation #   1 modes #   1   2

     Self-consistent Calculation

      iter #   1 total cpu time :  2082.9 secs   av.it.:   6.2
      thresh= 1.000E-02 alpha_mix =  0.700 |ddv_scf|^2 =  2.767E-07

      iter #   2 total cpu time :  2087.5 secs   av.it.:  11.7
      thresh= 5.260E-05 alpha_mix =  0.700 |ddv_scf|^2 =  3.085E-07

      iter #   3 total cpu time :  2091.8 secs   av.it.:  11.1
      thresh= 5.554E-05 alpha_mix =  0.700 |ddv_scf|^2 =  2.512E-09

      iter #   4 total cpu time :  2097.0 secs   av.it.:  11.2
      thresh= 5.012E-06 alpha_mix =  0.700 |ddv_scf|^2 =  5.099E-11

      iter #   5 total cpu time :  2101.7 secs   av.it.:  11.4
      thresh= 7.141E-07 alpha_mix =  0.700 |ddv_scf|^2 =  5.890E-13

      iter #   6 total cpu time :  2106.5 secs   av.it.:  11.6
      thresh= 7.675E-08 alpha_mix =  0.700 |ddv_scf|^2 =  1.180E-14

      iter #   7 total cpu time :  2110.9 secs   av.it.:  11.5
      thresh= 1.086E-08 alpha_mix =  0.700 |ddv_scf|^2 =  6.132E-16

     End of self-consistent calculation

     Convergence has been achieved 


     Representation #   2 modes #   3   4

     Self-consistent Calculation

      iter #   1 total cpu time :  2117.1 secs   av.it.:   6.4
      thresh= 1.000E-02 alpha_mix =  0.700 |ddv_scf|^2 =  5.016E-07

      iter #   2 total cpu time :  2121.7 secs   av.it.:  11.8
      thresh= 7.083E-05 alpha_mix =  0.700 |ddv_scf|^2 =  5.625E-07

      iter #   3 total cpu time :  2126.0 secs   av.it.:  11.1
      thresh= 7.500E-05 alpha_mix =  0.700 |ddv_scf|^2 =  4.862E-09

      iter #   4 total cpu time :  2130.4 secs   av.it.:  11.2
      thresh= 6.972E-06 alpha_mix =  0.700 |ddv_scf|^2 =  5.072E-11

      iter #   5 total cpu time :  2134.8 secs   av.it.:  11.4
      thresh= 7.122E-07 alpha_mix =  0.700 |ddv_scf|^2 =  1.156E-12

      iter #   6 total cpu time :  2139.3 secs   av.it.:  11.6
      thresh= 1.075E-07 alpha_mix =  0.700 |ddv_scf|^2 =  9.176E-15

      iter #   7 total cpu time :  2143.8 secs   av.it.:  11.5
      thresh= 9.579E-09 alpha_mix =  0.700 |ddv_scf|^2 =  5.763E-16

     End of self-consistent calculation

     Convergence has been achieved 


     Representation #   3 modes #   5   6

     Self-consistent Calculation

      iter #   1 total cpu time :  2147.2 secs   av.it.:   6.5
      thresh= 1.000E-02 alpha_mix =  0.700 |ddv_scf|^2 =  6.644E-07

      iter #   2 total cpu time :  2152.2 secs   av.it.:  11.6
      thresh= 8.151E-05 alpha_mix =  0.700 |ddv_scf|^2 =  7.292E-07

      iter #   3 total cpu time :  2156.5 secs   av.it.:  11.0
      thresh= 8.540E-05 alpha_mix =  0.700 |ddv_scf|^2 =  5.884E-09

      iter #   4 total cpu time :  2160.8 secs   av.it.:  11.1
      thresh= 7.671E-06 alpha_mix =  0.700 |ddv_scf|^2 =  3.995E-11

      iter #   5 total cpu time :  2165.3 secs   av.it.:  11.4
      thresh= 6.321E-07 alpha_mix =  0.700 |ddv_scf|^2 =  3.791E-13

      iter #   6 total cpu time :  2170.2 secs   av.it.:  11.5
      thresh= 6.157E-08 alpha_mix =  0.700 |ddv_scf|^2 =  6.649E-15

      iter #   7 total cpu time :  2175.3 secs   av.it.:  11.4
      thresh= 8.154E-09 alpha_mix =  0.700 |ddv_scf|^2 =  3.997E-16

     End of self-consistent calculation

     Convergence has been achieved 
 
     Number of q in the star =   12
     List of q in the star:
          1  -0.333333333  -1.000000000   0.000000000
          2   0.000000000  -1.000000000  -0.333333333
          3   0.000000000  -1.000000000   0.333333333
          4   0.333333333  -1.000000000   0.000000000
          5  -1.000000000   0.000000000  -0.333333333
          6   1.000000000   0.000000000   0.333333333
          7   0.000000000   0.333333333   1.000000000
          8   0.000000000  -0.333333333  -1.000000000
          9  -1.000000000  -0.333333333   0.000000000
         10   1.000000000   0.333333333   0.000000000
         11  -0.333333333   0.000000000   1.000000000
         12   0.333333333   0.000000000   1.000000000

     Diagonalizing the dynamical matrix

     q = (   -0.333333333  -1.000000000   0.000000000 ) 

 **************************************************************************
     freq (    1) =       5.494075 [THz] =     183.262610 [cm-1]
     freq (    2) =       5.494075 [THz] =     183.262610 [cm-1]
     freq (    3) =      10.966365 [THz] =     365.798571 [cm-1]
     freq (    4) =      10.966365 [THz] =     365.798571 [cm-1]
     freq (    5) =      14.002443 [THz] =     467.071218 [cm-1]
     freq (    6) =      14.002443 [THz] =     467.071218 [cm-1]
 **************************************************************************
 
     init_run     :      0.28s CPU      0.33s WALL (      15 calls)
     electrons    :    109.37s CPU    115.48s WALL (      15 calls)

     Called by init_run:
     wfcinit      :      0.00s CPU      0.02s WALL (      15 calls)
     potinit      :      0.02s CPU      0.03s WALL (      15 calls)
     hinit0       :      0.12s CPU      0.12s WALL (      15 calls)

     Called by electrons:
     c_bands      :    109.37s CPU    115.48s WALL (      15 calls)
     v_of_rho     :      0.01s CPU      0.01s WALL (      16 calls)

     Called by c_bands:
     init_us_2    :     12.79s CPU     13.49s WALL (  249313 calls)
     init_us_2:cp :     12.21s CPU     12.95s WALL (  249313 calls)
     cegterg      :     78.38s CPU     81.88s WALL (    8380 calls)

     Called by *egterg:
     cdiaghg      :      6.86s CPU      7.24s WALL (  115750 calls)
     h_psi        :   1340.81s CPU   1408.69s WALL ( 2444185 calls)
     g_psi        :      0.51s CPU      0.53s WALL (  107370 calls)

     Called by h_psi:
     h_psi:calbec :    105.50s CPU    110.73s WALL ( 2444185 calls)
     vloc_psi     :   1162.31s CPU   1221.34s WALL ( 2444185 calls)
     add_vuspsi   :     52.86s CPU     56.14s WALL ( 2444185 calls)

     General routines
     calbec       :    161.67s CPU    171.26s WALL ( 4907736 calls)
     fft          :      0.70s CPU      0.72s WALL (    3929 calls)
     ffts         :      5.40s CPU      5.51s WALL (   25932 calls)
     fftw         :   1312.06s CPU   1377.92s WALL (20846508 calls)
     davcio       :      9.09s CPU     32.52s WALL ( 1051556 calls)
 
     Parallel routines
 
     PHONON       :  31m52.99s CPU  36m16.15s WALL

     INITIALIZATION: 
     phq_setup    :      0.04s CPU      0.15s WALL (      16 calls)
     phq_init     :      4.39s CPU      7.99s WALL (      16 calls)
 
     phq_init     :      4.39s CPU      7.99s WALL (      16 calls)
     set_drhoc    :      0.52s CPU      0.53s WALL (      48 calls)
     init_vloc    :      0.03s CPU      0.04s WALL (      16 calls)
     init_us_1    :      0.03s CPU      0.03s WALL (      16 calls)
     init_us_2    :     12.79s CPU     13.49s WALL (  249313 calls)
 
     DYNAMICAL MATRIX:
     dynmat0      :      2.83s CPU      6.33s WALL (      16 calls)
     phqscf       :   1790.67s CPU   2014.62s WALL (      16 calls)
     dynmatrix    :      0.02s CPU      1.64s WALL (      16 calls)
 
     phqscf       :   1790.67s CPU   2014.62s WALL (      16 calls)
     solve_linter :   1785.47s CPU   1992.52s WALL (      76 calls)
     drhodv       :      5.11s CPU      5.50s WALL (      76 calls)
 
     dynmat0      :      2.83s CPU      6.33s WALL (      16 calls)
     dynmat_us    :      2.44s CPU      2.49s WALL (      16 calls)
     d2ionq       :      0.00s CPU      0.01s WALL (      16 calls)
     dynmatcc     :      0.36s CPU      0.36s WALL (      16 calls)
 
     dynmat_us    :      2.44s CPU      2.49s WALL (      16 calls)
 
     phqscf       :   1790.67s CPU   2014.62s WALL (      16 calls)
     solve_linter :   1785.47s CPU   1992.52s WALL (      76 calls)
 
     solve_linter :   1785.47s CPU   1992.52s WALL (      76 calls)
     dvqpsi_us    :     23.52s CPU     24.44s WALL (   25476 calls)
     sth_kernel   :   1720.75s CPU   1827.16s WALL (     583 calls)
     apply_dpot_b :     99.38s CPU    104.85s WALL (  175859 calls)
     ortho        :      7.38s CPU      7.80s WALL (  201335 calls)
     cgsolve      :   1438.02s CPU   1511.27s WALL (  201335 calls)
     incdrhoscf   :    152.82s CPU    158.77s WALL (  201251 calls)
     dv_of_drho   :      0.24s CPU      0.24s WALL (     710 calls)
     mix_pot      :      3.37s CPU     69.83s WALL (     583 calls)
     psymdvscf    :      8.16s CPU      8.24s WALL (     578 calls)
 
     dvqpsi_us    :     23.52s CPU     24.44s WALL (   25476 calls)
     dvqpsi_us_on :      3.58s CPU      3.74s WALL (   25476 calls)
 
     cgsolve      :   1438.02s CPU   1511.27s WALL (  201335 calls)
     ch_psi       :   1401.33s CPU   1472.28s WALL ( 2320055 calls)
 
     ch_psi       :   1401.33s CPU   1472.28s WALL ( 2320055 calls)
     h_psi        :   1340.81s CPU   1408.69s WALL ( 2444185 calls)
     last         :    110.70s CPU    116.35s WALL ( 2320055 calls)
 
     h_psi        :   1340.81s CPU   1408.69s WALL ( 2444185 calls)
     add_vuspsi   :     52.86s CPU     56.14s WALL ( 2444185 calls)
 
     incdrhoscf   :    152.82s CPU    158.77s WALL (  201251 calls)
 
 
      General routines
     calbec       :    161.67s CPU    171.26s WALL ( 4907736 calls)
     fft          :      0.70s CPU      0.72s WALL (    3929 calls)
     ffts         :      5.40s CPU      5.51s WALL (   25932 calls)
     fftw         :   1312.06s CPU   1377.92s WALL (20846508 calls)
     davcio       :      9.09s CPU     32.52s WALL ( 1051556 calls)
     write_rec    :      0.51s CPU     49.73s WALL (     659 calls)
 
 
     PHONON       :  31m52.99s CPU  36m16.15s WALL

 
   This run was terminated on:  13:58:44   3Jun2022            

=------------------------------------------------------------------------------=
   JOB DONE.
=------------------------------------------------------------------------------=
real 2178.67
user 35207.01
sys 1728.96
