Module for gcc 10.2:
(GNU C/C++/FORTRAN compilers v10.2.0) - loaded.
Module for OpenMPI 4.1.0-gcc10.2-infiniband loaded.

     Program PWSCF v.7.0 starts on 12Feb2022 at 12:21:23 

     This program is part of the open-source Quantum ESPRESSO suite
     for quantum simulation of materials; please cite
         "P. Giannozzi et al., J. Phys.:Condens. Matter 21 395502 (2009);
         "P. Giannozzi et al., J. Phys.:Condens. Matter 29 465901 (2017);
         "P. Giannozzi et al., J. Chem. Phys. 152 154105 (2020);
          URL http://www.quantum-espresso.org", 
     in publications or presentations arising from this work. More details at
     http://www.quantum-espresso.org/quote

     Parallel version (MPI), running on     1 processors

     MPI processes distributed on     1 nodes
     50683 MiB available memory on the printing compute node when the environment starts

     Reading input from in_files/kp_10.scf

     Current dimensions of program PWSCF are:
     Max number of different atomic species (ntypx) = 10
     Max number of k-points (npk) =  40000
     Max angular momentum in pseudopotentials (lmaxx) =  4

     Subspace diagonalization in iterative solution of the eigenvalue problem:
     a serial algorithm will be used


     G-vector sticks info
     --------------------
     sticks:   dense  smooth     PW     G-vecs:    dense   smooth      PW
     Sum         313     313    109                 3839     3839     749

     Using Slab Decomposition



     bravais-lattice index     =            2
     lattice parameter (alat)  =      10.2000  a.u.
     unit-cell volume          =     265.3020 (a.u.)^3
     number of atoms/cell      =            2
     number of atomic types    =            1
     number of electrons       =         8.00
     number of Kohn-Sham states=            4
     kinetic-energy cutoff     =      23.0000  Ry
     charge density cutoff     =      92.0000  Ry
     scf convergence threshold =      1.0E-12
     mixing beta               =       0.7000
     number of iterations used =            8  plain     mixing
     Exchange-correlation= PBE
                           (   1   4   3   4   0   0   0)

     celldm(1)=  10.200000  celldm(2)=   0.000000  celldm(3)=   0.000000
     celldm(4)=   0.000000  celldm(5)=   0.000000  celldm(6)=   0.000000

     crystal axes: (cart. coord. in units of alat)
               a(1) = (  -0.500000   0.000000   0.500000 )  
               a(2) = (   0.000000   0.500000   0.500000 )  
               a(3) = (  -0.500000   0.500000   0.000000 )  

     reciprocal axes: (cart. coord. in units 2 pi/alat)
               b(1) = ( -1.000000 -1.000000  1.000000 )  
               b(2) = (  1.000000  1.000000  1.000000 )  
               b(3) = ( -1.000000  1.000000 -1.000000 )  


     PseudoPot. # 1 for Si read from file:
     ./pseudos/Si_pbe_v0.4.1.nc.sr.upf
     MD5 check sum: 02fab3f35e82123ef5bf1cb05d5b1a5e
     Pseudo is Norm-conserving + core correction, Zval =  4.0
     Generated using ONCVPSP code by D. R. Hamann
     Using radial grid of 1510 points,  6 beta functions with: 
                l(1) =   0
                l(2) =   0
                l(3) =   1
                l(4) =   1
                l(5) =   2
                l(6) =   2

     atomic species   valence    mass     pseudopotential
        Si             4.00    28.08600     Si( 1.00)

     48 Sym. Ops., with inversion, found (24 have fractional translation)



   Cartesian axes

     site n.     atom                  positions (alat units)
         1           Si  tau(   1) = (   0.0000000   0.0000000   0.0000000  )
         2           Si  tau(   2) = (   0.2500000   0.2500000   0.2500000  )

     number of k points=    47
                       cart. coord. in units 2pi/alat
        k(    1) = (   0.0000000   0.0000000   0.0000000), wk =   0.0020000
        k(    2) = (  -0.1000000   0.1000000  -0.1000000), wk =   0.0160000
        k(    3) = (  -0.2000000   0.2000000  -0.2000000), wk =   0.0160000
        k(    4) = (  -0.3000000   0.3000000  -0.3000000), wk =   0.0160000
        k(    5) = (  -0.4000000   0.4000000  -0.4000000), wk =   0.0160000
        k(    6) = (   0.5000000  -0.5000000   0.5000000), wk =   0.0080000
        k(    7) = (   0.0000000   0.2000000   0.0000000), wk =   0.0120000
        k(    8) = (  -0.1000000   0.3000000  -0.1000000), wk =   0.0480000
        k(    9) = (  -0.2000000   0.4000000  -0.2000000), wk =   0.0480000
        k(   10) = (  -0.3000000   0.5000000  -0.3000000), wk =   0.0480000
        k(   11) = (   0.6000000  -0.4000000   0.6000000), wk =   0.0480000
        k(   12) = (   0.5000000  -0.3000000   0.5000000), wk =   0.0480000
        k(   13) = (   0.4000000  -0.2000000   0.4000000), wk =   0.0480000
        k(   14) = (   0.3000000  -0.1000000   0.3000000), wk =   0.0480000
        k(   15) = (   0.2000000   0.0000000   0.2000000), wk =   0.0240000
        k(   16) = (   0.0000000   0.4000000   0.0000000), wk =   0.0120000
        k(   17) = (  -0.1000000   0.5000000  -0.1000000), wk =   0.0480000
        k(   18) = (  -0.2000000   0.6000000  -0.2000000), wk =   0.0480000
        k(   19) = (   0.7000000  -0.3000000   0.7000000), wk =   0.0480000
        k(   20) = (   0.6000000  -0.2000000   0.6000000), wk =   0.0480000
        k(   21) = (   0.5000000  -0.1000000   0.5000000), wk =   0.0480000
        k(   22) = (   0.4000000   0.0000000   0.4000000), wk =   0.0240000
        k(   23) = (   0.0000000   0.6000000   0.0000000), wk =   0.0120000
        k(   24) = (  -0.1000000   0.7000000  -0.1000000), wk =   0.0480000
        k(   25) = (   0.8000000  -0.2000000   0.8000000), wk =   0.0480000
        k(   26) = (   0.7000000  -0.1000000   0.7000000), wk =   0.0480000
        k(   27) = (   0.6000000  -0.0000000   0.6000000), wk =   0.0240000
        k(   28) = (   0.0000000   0.8000000   0.0000000), wk =   0.0120000
        k(   29) = (   0.9000000  -0.1000000   0.9000000), wk =   0.0480000
        k(   30) = (   0.8000000   0.0000000   0.8000000), wk =   0.0240000
        k(   31) = (   0.0000000  -1.0000000   0.0000000), wk =   0.0060000
        k(   32) = (  -0.2000000   0.4000000   0.0000000), wk =   0.0480000
        k(   33) = (  -0.3000000   0.5000000  -0.1000000), wk =   0.0960000
        k(   34) = (   0.6000000  -0.4000000   0.8000000), wk =   0.0960000
        k(   35) = (   0.5000000  -0.3000000   0.7000000), wk =   0.0480000
        k(   36) = (  -0.2000000   0.6000000   0.0000000), wk =   0.0480000
        k(   37) = (   0.7000000  -0.3000000   0.9000000), wk =   0.0960000
        k(   38) = (   0.6000000  -0.2000000   0.8000000), wk =   0.0960000
        k(   39) = (   0.5000000  -0.1000000   0.7000000), wk =   0.0960000
        k(   40) = (   0.4000000   0.0000000   0.6000000), wk =   0.0480000
        k(   41) = (   0.8000000  -0.2000000   1.0000000), wk =   0.0480000
        k(   42) = (   0.7000000  -0.1000000   0.9000000), wk =   0.0960000
        k(   43) = (   0.6000000   0.0000000   0.8000000), wk =   0.0480000
        k(   44) = (  -0.2000000  -1.0000000   0.0000000), wk =   0.0240000
        k(   45) = (   0.6000000  -0.2000000   1.0000000), wk =   0.0480000
        k(   46) = (   0.5000000  -0.1000000   0.9000000), wk =   0.0480000
        k(   47) = (  -0.4000000  -1.0000000   0.0000000), wk =   0.0240000

     Dense  grid:     3839 G-vectors     FFT dimensions: (  24,  24,  24)

     Estimated max dynamical RAM per process >       5.16 MB

     Initial potential from superposition of free atoms

     starting charge       7.9988, renormalised to       8.0000
     Starting wfcs are    8 randomized atomic wfcs

     total cpu time spent up to now is        0.4 secs

     Self-consistent Calculation

     iteration #  1     ecut=    23.00 Ry     beta= 0.70
     Davidson diagonalization with overlap
     ethr =  1.00E-02,  avg # of iterations =  2.0

     Threshold (ethr) on eigenvalues was too large:
     Diagonalizing with lowered threshold

     Davidson diagonalization with overlap
     ethr =  5.91E-04,  avg # of iterations =  2.0

     total cpu time spent up to now is        0.9 secs

     total energy              =     -16.92069197 Ry
     estimated scf accuracy    <       0.05540082 Ry

     iteration #  2     ecut=    23.00 Ry     beta= 0.70
     Davidson diagonalization with overlap
     ethr =  6.93E-04,  avg # of iterations =  1.0

     total cpu time spent up to now is        1.1 secs

     total energy              =     -16.92237769 Ry
     estimated scf accuracy    <       0.00286705 Ry

     iteration #  3     ecut=    23.00 Ry     beta= 0.70
     Davidson diagonalization with overlap
     ethr =  3.58E-05,  avg # of iterations =  2.3

     total cpu time spent up to now is        1.4 secs

     total energy              =     -16.92298915 Ry
     estimated scf accuracy    <       0.00006619 Ry

     iteration #  4     ecut=    23.00 Ry     beta= 0.70
     Davidson diagonalization with overlap
     ethr =  8.27E-07,  avg # of iterations =  4.4

     total cpu time spent up to now is        1.7 secs

     total energy              =     -16.92305831 Ry
     estimated scf accuracy    <       0.00000036 Ry

     iteration #  5     ecut=    23.00 Ry     beta= 0.70
     Davidson diagonalization with overlap
     ethr =  4.45E-09,  avg # of iterations =  6.6

     total cpu time spent up to now is        2.1 secs

     total energy              =     -16.92305999 Ry
     estimated scf accuracy    <       0.00000004 Ry

     iteration #  6     ecut=    23.00 Ry     beta= 0.70
     Davidson diagonalization with overlap
     ethr =  5.60E-10,  avg # of iterations =  2.5

     total cpu time spent up to now is        2.4 secs

     total energy              =     -16.92306000 Ry
     estimated scf accuracy    <          7.8E-09 Ry

     iteration #  7     ecut=    23.00 Ry     beta= 0.70
     Davidson diagonalization with overlap
     ethr =  9.72E-11,  avg # of iterations =  2.4

     total cpu time spent up to now is        2.6 secs

     total energy              =     -16.92306000 Ry
     estimated scf accuracy    <          2.3E-10 Ry

     iteration #  8     ecut=    23.00 Ry     beta= 0.70
     Davidson diagonalization with overlap
     ethr =  2.90E-12,  avg # of iterations =  3.9

     total cpu time spent up to now is        2.9 secs

     total energy              =     -16.92306000 Ry
     estimated scf accuracy    <          2.8E-12 Ry

     iteration #  9     ecut=    23.00 Ry     beta= 0.70
     Davidson diagonalization with overlap
     ethr =  1.00E-13,  avg # of iterations =  4.0

     total cpu time spent up to now is        3.2 secs

     End of self-consistent calculation

          k = 0.0000 0.0000 0.0000 (   531 PWs)   bands (ev):

    -5.6685   6.4256   6.4256   6.4256

          k =-0.1000 0.1000-0.1000 (   516 PWs)   bands (ev):

    -5.5355   5.2742   6.2227   6.2227

          k =-0.2000 0.2000-0.2000 (   501 PWs)   bands (ev):

    -5.1429   3.3894   5.8348   5.8348

          k =-0.3000 0.3000-0.3000 (   492 PWs)   bands (ev):

    -4.5171   1.5771   5.4952   5.4952

          k =-0.4000 0.4000-0.4000 (   498 PWs)   bands (ev):

    -3.7552   0.0760   5.2798   5.2798

          k = 0.5000-0.5000 0.5000 (   476 PWs)   bands (ev):

    -3.2915  -0.6374   5.2075   5.2075

          k = 0.0000 0.2000 0.0000 (   515 PWs)   bands (ev):

    -5.4909   5.4989   5.8351   5.8351

          k =-0.1000 0.3000-0.1000 (   507 PWs)   bands (ev):

    -5.1837   3.9611   5.3917   5.5749

          k =-0.2000 0.4000-0.2000 (   496 PWs)   bands (ev):

    -4.6312   2.1732   5.0680   5.1361

          k =-0.3000 0.5000-0.3000 (   498 PWs)   bands (ev):

    -3.8938   0.5735   4.7177   4.9193

          k = 0.6000-0.4000 0.6000 (   485 PWs)   bands (ev):

    -3.2375  -0.4852   4.4219   4.9543

          k = 0.5000-0.3000 0.5000 (   495 PWs)   bands (ev):

    -3.4094  -0.2306   4.2892   5.1587

          k = 0.4000-0.2000 0.4000 (   503 PWs)   bands (ev):

    -4.1543   1.0761   4.3470   5.5002

          k = 0.3000-0.1000 0.3000 (   499 PWs)   bands (ev):

    -4.8421   2.7528   4.6227   5.9144

          k = 0.2000 0.0000 0.2000 (   505 PWs)   bands (ev):

    -5.3155   4.3878   5.2379   6.2475

          k = 0.0000 0.4000 0.0000 (   496 PWs)   bands (ev):

    -4.9622   3.8072   4.9063   4.9063

          k =-0.1000 0.5000-0.1000 (   494 PWs)   bands (ev):

    -4.4890   2.5379   4.3945   4.5522

          k =-0.2000 0.6000-0.2000 (   496 PWs)   bands (ev):

    -3.8019   1.0725   3.7583   4.3904

          k = 0.7000-0.3000 0.7000 (   490 PWs)   bands (ev):

    -3.0551  -0.1371   3.2408   4.4361

          k = 0.6000-0.2000 0.6000 (   492 PWs)   bands (ev):

    -2.8975  -0.3513   2.9353   4.6796

          k = 0.5000-0.1000 0.5000 (   500 PWs)   bands (ev):

    -3.5667   0.6584   2.9091   5.0854

          k = 0.4000 0.0000 0.4000 (   497 PWs)   bands (ev):

    -4.2978   1.9198   3.3640   5.5662

          k = 0.0000 0.6000 0.0000 (   496 PWs)   bands (ev):

    -4.0951   1.9946   4.1523   4.1523

          k =-0.1000 0.7000-0.1000 (   490 PWs)   bands (ev):

    -3.4721   0.9736   3.5125   3.9442

          k = 0.8000-0.2000 0.8000 (   485 PWs)   bands (ev):

    -2.7074  -0.0508   2.6665   3.9515

          k = 0.7000-0.1000 0.7000 (   498 PWs)   bands (ev):

    -2.2765  -0.5393   2.1013   4.1714

          k = 0.6000-0.0000 0.6000 (   494 PWs)   bands (ev):

    -2.8264   0.0612   2.0738   4.5757

          k = 0.0000 0.8000 0.0000 (   488 PWs)   bands (ev):

    -2.9136   0.2066   3.6797   3.6797

          k = 0.9000-0.1000 0.9000 (   484 PWs)   bands (ev):

    -2.1721  -0.6466   3.0786   3.6305

          k = 0.8000 0.0000 0.8000 (   494 PWs)   bands (ev):

    -1.6830  -1.0764   2.2758   3.8009

          k = 0.0000-1.0000 0.0000 (   468 PWs)   bands (ev):

    -1.4584  -1.4584   3.5197   3.5197

          k =-0.2000 0.4000 0.0000 (   498 PWs)   bands (ev):

    -4.7942   3.0362   4.3006   5.4393

          k =-0.3000 0.5000-0.1000 (   497 PWs)   bands (ev):

    -4.1724   1.6032   3.7078   5.0549

          k = 0.6000-0.4000 0.8000 (   499 PWs)   bands (ev):

    -3.4108   0.2133   3.4787   4.6958

          k = 0.5000-0.3000 0.7000 (   488 PWs)   bands (ev):

    -2.9397  -0.4803   3.4204   4.5542

          k =-0.2000 0.6000 0.0000 (   495 PWs)   bands (ev):

    -3.9425   1.6296   3.5614   4.2990

          k = 0.7000-0.3000 0.9000 (   496 PWs)   bands (ev):

    -3.2092   0.5084   2.9342   3.9614

          k = 0.6000-0.2000 0.8000 (   489 PWs)   bands (ev):

    -2.5439  -0.3748   2.5205   3.9046

          k = 0.5000-0.1000 0.7000 (   493 PWs)   bands (ev):

    -2.7499  -0.1093   2.3644   4.1504

          k = 0.4000 0.0000 0.6000 (   495 PWs)   bands (ev):

    -3.5007   0.8586   2.6666   4.6007

          k = 0.8000-0.2000 1.0000 (   483 PWs)   bands (ev):

    -2.7924   0.1206   3.1430   3.4738

          k = 0.7000-0.1000 0.9000 (   490 PWs)   bands (ev):

    -2.0392  -0.6664   2.4232   3.3817

          k = 0.6000 0.0000 0.8000 (   495 PWs)   bands (ev):

    -2.0415  -0.6422   1.9978   3.6571

          k =-0.2000-1.0000 0.0000 (   484 PWs)   bands (ev):

    -1.4030  -1.4030   3.0983   3.0983

          k = 0.6000-0.2000 1.0000 (   499 PWs)   bands (ev):

    -2.4635  -0.1825   2.3648   3.3695

          k = 0.5000-0.1000 0.9000 (   490 PWs)   bands (ev):

    -1.9411  -0.7006   2.2031   3.1127

          k =-0.4000-1.0000 0.0000 (   498 PWs)   bands (ev):

    -1.3048  -1.3048   2.5704   2.5704

     highest occupied level (ev):     6.4256

!    total energy              =     -16.92306000 Ry
     estimated scf accuracy    <          7.7E-13 Ry

     The total energy is the sum of the following terms:
     one-electron contribution =       5.10168214 Ry
     hartree contribution      =       1.07904333 Ry
     xc contribution           =      -6.20402687 Ry
     ewald contribution        =     -16.89975860 Ry

     convergence has been achieved in   9 iterations

     Forces acting on atoms (cartesian axes, Ry/au):

     atom    1 type  1   force =    -0.00000000   -0.00000000    0.00000000
     atom    2 type  1   force =     0.00000000    0.00000000   -0.00000000

     Total force =     0.000000     Total SCF correction =     0.000000


     Computing stress (Cartesian axis) and pressure

          total   stress  (Ry/bohr**3)                   (kbar)     P=       36.99
   0.00025143  -0.00000000   0.00000000           36.99       -0.00        0.00
  -0.00000000   0.00025143   0.00000000           -0.00       36.99        0.00
   0.00000000  -0.00000000   0.00025143            0.00       -0.00       36.99


     Writing all to output data dir /fastscratch/tsievers/QE_TMP_DIR/silicon_bench_singlecore_kpoints_10.save/

     init_run     :      0.40s CPU      0.41s WALL (       1 calls)
     electrons    :      2.70s CPU      2.76s WALL (       1 calls)
     forces       :      0.06s CPU      0.06s WALL (       1 calls)
     stress       :      0.21s CPU      0.21s WALL (       1 calls)

     Called by init_run:
     wfcinit      :      0.22s CPU      0.22s WALL (       1 calls)
     potinit      :      0.01s CPU      0.01s WALL (       1 calls)
     hinit0       :      0.17s CPU      0.17s WALL (       1 calls)

     Called by electrons:
     c_bands      :      2.29s CPU      2.33s WALL (      10 calls)
     sum_band     :      0.32s CPU      0.33s WALL (      10 calls)
     v_of_rho     :      0.08s CPU      0.08s WALL (      10 calls)
     mix_rho      :      0.00s CPU      0.00s WALL (      10 calls)

     Called by c_bands:
     init_us_2    :      0.20s CPU      0.20s WALL (    1081 calls)
     init_us_2:cp :      0.20s CPU      0.20s WALL (    1081 calls)
     cegterg      :      1.92s CPU      1.95s WALL (     470 calls)

     Called by *egterg:
     cdiaghg      :      0.05s CPU      0.05s WALL (    1881 calls)
     h_psi        :      1.86s CPU      1.89s WALL (    1975 calls)
     g_psi        :      0.02s CPU      0.02s WALL (    1458 calls)

     Called by h_psi:
     h_psi:calbec :      0.18s CPU      0.18s WALL (    1975 calls)
     vloc_psi     :      1.48s CPU      1.51s WALL (    1975 calls)
     add_vuspsi   :      0.19s CPU      0.19s WALL (    1975 calls)

     General routines
     calbec       :      0.20s CPU      0.20s WALL (    2210 calls)
     fft          :      0.13s CPU      0.13s WALL (     125 calls)
     ffts         :      0.00s CPU      0.00s WALL (      10 calls)
     fftw         :      1.48s CPU      1.51s WALL (   15030 calls)

     Parallel routines

     PWSCF        :      3.41s CPU      3.63s WALL


   This run was terminated on:  12:21:26  12Feb2022            

=------------------------------------------------------------------------------=
   JOB DONE.
=------------------------------------------------------------------------------=
