
     Program PHONON v.7.0 starts on 26Jun2022 at  1:24:33 

     This program is part of the open-source Quantum ESPRESSO suite
     for quantum simulation of materials; please cite
         "P. Giannozzi et al., J. Phys.:Condens. Matter 21 395502 (2009);
         "P. Giannozzi et al., J. Phys.:Condens. Matter 29 465901 (2017);
         "P. Giannozzi et al., J. Chem. Phys. 152 154105 (2020);
          URL http://www.quantum-espresso.org", 
     in publications or presentations arising from this work. More details at
     http://www.quantum-espresso.org/quote

     Parallel version (MPI), running on    16 processors

     MPI processes distributed on     1 nodes
     path-images division:  nimage    =       2
     R & G space division:  proc/nbgrp/npool/nimage =       8
     1954 MiB available memory on the printing compute node when the environment starts
 
      Title line not specified: using 'default'.

     Reading xml data from directory:

     /fastscratch/tsievers/QE_TMP_DIR/si_ph_bench_nimages_2_n_procs_16_4.save/

     IMPORTANT: XC functional enforced from input :
     Exchange-correlation= PW
                           (   1   4   0   0   0   0   0)
     Any further DFT definition will be discarded
     Please, verify this is what you really want

 
     Parallelization info
     --------------------
     sticks:   dense  smooth     PW     G-vecs:    dense   smooth      PW
     Min         125     125     37                 2608     2608     433
     Max         126     126     38                 2611     2611     436
     Sum        1003    1003    301                20875    20875    3479
 
     Using Slab Decomposition
 
     Reading collected, re-writing distributed wavefunctions


     Dynamical matrices for ( 6, 6, 6)  uniform grid of q-points
     (  16 q-points):
       N         xq(1)         xq(2)         xq(3) 
       1   0.000000000   0.000000000   0.000000000
       2  -0.166666667   0.166666667  -0.166666667
       3  -0.333333333   0.333333333  -0.333333333
       4   0.500000000  -0.500000000   0.500000000
       5   0.000000000   0.333333333   0.000000000
       6  -0.166666667   0.500000000  -0.166666667
       7   0.666666667  -0.333333333   0.666666667
       8   0.500000000  -0.166666667   0.500000000
       9   0.333333333   0.000000000   0.333333333
      10   0.000000000   0.666666667   0.000000000
      11   0.833333333  -0.166666667   0.833333333
      12   0.666666667  -0.000000000   0.666666667
      13   0.000000000  -1.000000000   0.000000000
      14   0.666666667  -0.333333333   1.000000000
      15   0.500000000  -0.166666667   0.833333333
      16  -0.333333333  -1.000000000   0.000000000

      Image parallelization. There are  2 images and    76 representations
      The estimated total work is  1512 self-consistent (scf) runs
      I am image number     1 and my work is about  759 scf runs. I calculate: 
      q point number     9, representations:
       5 6
      q point number    10, representations:
       0 1 2 3 4
      q point number    11, representations:
       0 1 2 3 4 5 6
      q point number    12, representations:
       0 1 2 3 4 5 6
      q point number    13, representations:
       0 1 2 3
      q point number    14, representations:
       0 1 2 3 4 5 6
      q point number    15, representations:
       0 1 2 3 4 5 6
      q point number    16, representations:
       0 1 2 3

     Calculation of q =    0.3333333   0.0000000   0.3333333

     Subspace diagonalization in iterative solution of the eigenvalue problem:
     a serial algorithm will be used

 
     Parallelization info
     --------------------
     sticks:   dense  smooth     PW     G-vecs:    dense   smooth      PW
     Min         125     125     39                 2608     2608     479
     Max         126     126     40                 2611     2611     484
     Sum        1003    1003    313                20875    20875    3839
 
     Using Slab Decomposition
 

     Title: 
     default                                                                    


     bravais-lattice index     =            2
     lattice parameter (alat)  =      10.1899  a.u.
     unit-cell volume          =     264.5151 (a.u.)^3
     number of atoms/cell      =            2
     number of atomic types    =            1
     number of electrons       =         8.00
     number of Kohn-Sham states=            4
     kinetic-energy cutoff     =      70.0000  Ry
     charge density cutoff     =     280.0000  Ry
     Exchange-correlation= PW
                           (   1   4   0   0   0   0   0)

     celldm(1)=  10.189905  celldm(2)=   0.000000  celldm(3)=   0.000000
     celldm(4)=   0.000000  celldm(5)=   0.000000  celldm(6)=   0.000000

     crystal axes: (cart. coord. in units of alat)
               a(1) = (  -0.500000   0.000000   0.500000 )  
               a(2) = (   0.000000   0.500000   0.500000 )  
               a(3) = (  -0.500000   0.500000   0.000000 )  

     reciprocal axes: (cart. coord. in units 2 pi/alat)
               b(1) = ( -1.000000 -1.000000  1.000000 )  
               b(2) = (  1.000000  1.000000  1.000000 )  
               b(3) = ( -1.000000  1.000000 -1.000000 )  


     PseudoPot. # 1 for Si read from file:
     /fastscratch/tsievers/si_ph_benchmark_images//pseudos/Si.nc.UPF
     MD5 check sum: 9e2d726316af3d4752eea8ab0afbb951
     Pseudo is Norm-conserving + core correction, Zval =  4.0
     Generated using ONCVPSP code by D. R. Hamann
     Using radial grid of 1510 points,  6 beta functions with: 
                l(1) =   0
                l(2) =   0
                l(3) =   1
                l(4) =   1
                l(5) =   2
                l(6) =   2

     atomic species   valence    mass     pseudopotential
        Si             4.00    28.08550     Si( 1.00)

     48 Sym. Ops., with inversion, found



   Cartesian axes

     site n.     atom                  positions (alat units)
         1           Si  tau(   1) = (   0.0000000   0.0000000   0.0000000  )
         2           Si  tau(   2) = (  -0.2500000   0.2500000   0.2500000  )

     number of k points=   468

     Number of k-points >= 100: set verbosity='high' to print them.

     Dense  grid:    20875 G-vectors     FFT dimensions: (  40,  40,  40)

     Estimated max dynamical RAM per process >       2.64 MB

     Estimated total dynamical RAM >      21.11 MB

     The potential is recalculated from file :
     /fastscratch/tsievers/QE_TMP_DIR/_ph1/si_ph_bench_nimages_2_n_procs_16_4.save/charge-density

     Starting wfcs are    8 atomic wfcs

     Band Structure Calculation
     Davidson diagonalization with overlap

     ethr =  1.25E-10,  avg # of iterations = 12.8

     total cpu time spent up to now is        7.1 secs

     End of band structure calculation

     Number of k-points >= 100: set verbosity='high' to print the bands.

     highest occupied level (ev):     6.1106

     Writing config to output data dir /fastscratch/tsievers/QE_TMP_DIR/_ph1/si_ph_bench_nimages_2_n_procs_16_4.save/

     default                                                                    

     bravais-lattice index     =            2
     lattice parameter (alat)  =      10.1899  a.u.
     unit-cell volume          =     264.5151 (a.u.)^3
     number of atoms/cell      =            2
     number of atomic types    =            1
     kinetic-energy cut-off    =      70.0000  Ry
     charge density cut-off    =     280.0000  Ry
     convergence threshold     =      1.0E-15
     beta                      =       0.7000
     number of iterations used =            4
     Exchange-correlation= PW
                           (   1   4   0   0   0   0   0)


     celldm(1)=   10.18990  celldm(2)=    0.00000  celldm(3)=    0.00000
     celldm(4)=    0.00000  celldm(5)=    0.00000  celldm(6)=    0.00000

     crystal axes: (cart. coord. in units of alat)
               a(1) = ( -0.5000  0.0000  0.5000 )  
               a(2) = (  0.0000  0.5000  0.5000 )  
               a(3) = ( -0.5000  0.5000  0.0000 )  

     reciprocal axes: (cart. coord. in units 2 pi/alat)
               b(1) = ( -1.0000 -1.0000  1.0000 )  
               b(2) = (  1.0000  1.0000  1.0000 )  
               b(3) = ( -1.0000  1.0000 -1.0000 )  


     Atoms inside the unit cell: 

     Cartesian axes

     site n.  atom      mass           positions (alat units)
        1     Si  28.0855   tau(    1) = (    0.00000    0.00000    0.00000  )
        2     Si  28.0855   tau(    2) = (   -0.25000    0.25000    0.25000  )

     Computing dynamical matrix for 
                    q = (   0.3333333   0.0000000   0.3333333 )
 
      4 Sym.Ops. (no q -> -q+G )


     G cutoff =  736.4420  (   2611 G-vectors)     FFT grid: ( 40, 40, 40)
     number of k points=   468

     PseudoPot. # 1 for Si read from file:
     /fastscratch/tsievers/si_ph_benchmark_images//pseudos/Si.nc.UPF
     MD5 check sum: 9e2d726316af3d4752eea8ab0afbb951
     Pseudo is Norm-conserving + core correction, Zval =  4.0
     Generated using ONCVPSP code by D. R. Hamann
     Using radial grid of 1510 points,  6 beta functions with: 
                l(1) =   0
                l(2) =   0
                l(3) =   1
                l(4) =   1
                l(5) =   2
                l(6) =   2

     Mode symmetry, C_2v (mm2)  point group:


     Atomic displacements:
     There are    6 irreducible representations

     Representation     1      1 modes -  Not done in this run

     Representation     2      1 modes -  Not done in this run

     Representation     3      1 modes -  Not done in this run

     Representation     4      1 modes -  Not done in this run

     Representation     5      1 modes -  To be done

     Representation     6      1 modes -  To be done

     Compute atoms:     1,    2,


     PHONON       :      7.41s CPU      8.83s WALL



     Representation #   5 mode #   5

     Self-consistent Calculation

      iter #   1 total cpu time :    10.7 secs   av.it.:   5.4
      thresh= 1.000E-02 alpha_mix =  0.700 |ddv_scf|^2 =  1.065E-07

      iter #   2 total cpu time :    13.6 secs   av.it.:  10.7
      thresh= 3.264E-05 alpha_mix =  0.700 |ddv_scf|^2 =  3.511E-08

      iter #   3 total cpu time :    16.5 secs   av.it.:  10.2
      thresh= 1.874E-05 alpha_mix =  0.700 |ddv_scf|^2 =  4.471E-10

      iter #   4 total cpu time :    19.4 secs   av.it.:  10.3
      thresh= 2.115E-06 alpha_mix =  0.700 |ddv_scf|^2 =  7.373E-12

      iter #   5 total cpu time :    22.3 secs   av.it.:  10.5
      thresh= 2.715E-07 alpha_mix =  0.700 |ddv_scf|^2 =  2.488E-13

      iter #   6 total cpu time :    25.3 secs   av.it.:  10.6
      thresh= 4.988E-08 alpha_mix =  0.700 |ddv_scf|^2 =  5.577E-15

      iter #   7 total cpu time :    28.2 secs   av.it.:  10.7
      thresh= 7.468E-09 alpha_mix =  0.700 |ddv_scf|^2 =  3.875E-17

     End of self-consistent calculation

     Convergence has been achieved 


     Representation #   6 mode #   6

     Self-consistent Calculation

      iter #   1 total cpu time :    30.4 secs   av.it.:   6.1
      thresh= 1.000E-02 alpha_mix =  0.700 |ddv_scf|^2 =  1.175E-06

      iter #   2 total cpu time :    33.3 secs   av.it.:  10.6
      thresh= 1.084E-04 alpha_mix =  0.700 |ddv_scf|^2 =  4.122E-07

      iter #   3 total cpu time :    36.1 secs   av.it.:  10.1
      thresh= 6.420E-05 alpha_mix =  0.700 |ddv_scf|^2 =  1.146E-09

      iter #   4 total cpu time :    38.9 secs   av.it.:  10.4
      thresh= 3.386E-06 alpha_mix =  0.700 |ddv_scf|^2 =  5.981E-11

      iter #   5 total cpu time :    41.8 secs   av.it.:  10.4
      thresh= 7.734E-07 alpha_mix =  0.700 |ddv_scf|^2 =  1.895E-13

      iter #   6 total cpu time :    45.7 secs   av.it.:  10.4
      thresh= 4.353E-08 alpha_mix =  0.700 |ddv_scf|^2 =  2.323E-15

      iter #   7 total cpu time :    48.6 secs   av.it.:  10.6
      thresh= 4.820E-09 alpha_mix =  0.700 |ddv_scf|^2 =  7.181E-17

     End of self-consistent calculation

     Convergence has been achieved 

     Not diagonalizing because representation    0 is not done

     Calculation of q =    0.0000000   0.6666667   0.0000000
 
     Parallelization info
     --------------------
     sticks:   dense  smooth     PW     G-vecs:    dense   smooth      PW
     Min         125     125     39                 2608     2608     479
     Max         126     126     40                 2611     2611     484
     Sum        1003    1003    313                20875    20875    3839
 
     Using Slab Decomposition
 

     Title: 
     default                                                                    


     bravais-lattice index     =            2
     lattice parameter (alat)  =      10.1899  a.u.
     unit-cell volume          =     264.5151 (a.u.)^3
     number of atoms/cell      =            2
     number of atomic types    =            1
     number of electrons       =         8.00
     number of Kohn-Sham states=            4
     kinetic-energy cutoff     =      70.0000  Ry
     charge density cutoff     =     280.0000  Ry
     Exchange-correlation= PW
                           (   1   4   0   0   0   0   0)

     celldm(1)=  10.189905  celldm(2)=   0.000000  celldm(3)=   0.000000
     celldm(4)=   0.000000  celldm(5)=   0.000000  celldm(6)=   0.000000

     crystal axes: (cart. coord. in units of alat)
               a(1) = (  -0.500000   0.000000   0.500000 )  
               a(2) = (   0.000000   0.500000   0.500000 )  
               a(3) = (  -0.500000   0.500000   0.000000 )  

     reciprocal axes: (cart. coord. in units 2 pi/alat)
               b(1) = ( -1.000000 -1.000000  1.000000 )  
               b(2) = (  1.000000  1.000000  1.000000 )  
               b(3) = ( -1.000000  1.000000 -1.000000 )  


     PseudoPot. # 1 for Si read from file:
     /fastscratch/tsievers/si_ph_benchmark_images//pseudos/Si.nc.UPF
     MD5 check sum: 9e2d726316af3d4752eea8ab0afbb951
     Pseudo is Norm-conserving + core correction, Zval =  4.0
     Generated using ONCVPSP code by D. R. Hamann
     Using radial grid of 1510 points,  6 beta functions with: 
                l(1) =   0
                l(2) =   0
                l(3) =   1
                l(4) =   1
                l(5) =   2
                l(6) =   2

     atomic species   valence    mass     pseudopotential
        Si             4.00    28.08550     Si( 1.00)

     48 Sym. Ops., with inversion, found



   Cartesian axes

     site n.     atom                  positions (alat units)
         1           Si  tau(   1) = (   0.0000000   0.0000000   0.0000000  )
         2           Si  tau(   2) = (  -0.2500000   0.2500000   0.2500000  )

     number of k points=   252

     Number of k-points >= 100: set verbosity='high' to print them.

     Dense  grid:    20875 G-vectors     FFT dimensions: (  40,  40,  40)

     Estimated max dynamical RAM per process >       2.65 MB

     Estimated total dynamical RAM >      21.18 MB

     The potential is recalculated from file :
     /fastscratch/tsievers/QE_TMP_DIR/_ph1/si_ph_bench_nimages_2_n_procs_16_4.save/charge-density

     Starting wfcs are    8 atomic wfcs

     Band Structure Calculation
     Davidson diagonalization with overlap

     ethr =  1.25E-10,  avg # of iterations = 12.8

     total cpu time spent up to now is       11.7 secs

     End of band structure calculation

     Number of k-points >= 100: set verbosity='high' to print the bands.

     highest occupied level (ev):     6.1106

     Writing config to output data dir /fastscratch/tsievers/QE_TMP_DIR/_ph1/si_ph_bench_nimages_2_n_procs_16_4.save/

     default                                                                    

     bravais-lattice index     =            2
     lattice parameter (alat)  =      10.1899  a.u.
     unit-cell volume          =     264.5151 (a.u.)^3
     number of atoms/cell      =            2
     number of atomic types    =            1
     kinetic-energy cut-off    =      70.0000  Ry
     charge density cut-off    =     280.0000  Ry
     convergence threshold     =      1.0E-15
     beta                      =       0.7000
     number of iterations used =            4
     Exchange-correlation= PW
                           (   1   4   0   0   0   0   0)


     celldm(1)=   10.18990  celldm(2)=    0.00000  celldm(3)=    0.00000
     celldm(4)=    0.00000  celldm(5)=    0.00000  celldm(6)=    0.00000

     crystal axes: (cart. coord. in units of alat)
               a(1) = ( -0.5000  0.0000  0.5000 )  
               a(2) = (  0.0000  0.5000  0.5000 )  
               a(3) = ( -0.5000  0.5000  0.0000 )  

     reciprocal axes: (cart. coord. in units 2 pi/alat)
               b(1) = ( -1.0000 -1.0000  1.0000 )  
               b(2) = (  1.0000  1.0000  1.0000 )  
               b(3) = ( -1.0000  1.0000 -1.0000 )  


     Atoms inside the unit cell: 

     Cartesian axes

     site n.  atom      mass           positions (alat units)
        1     Si  28.0855   tau(    1) = (    0.00000    0.00000    0.00000  )
        2     Si  28.0855   tau(    2) = (   -0.25000    0.25000    0.25000  )

     Computing dynamical matrix for 
                    q = (   0.0000000   0.6666667   0.0000000 )
 
      8 Sym.Ops. (no q -> -q+G )


     G cutoff =  736.4420  (   2611 G-vectors)     FFT grid: ( 40, 40, 40)
     number of k points=   252

     PseudoPot. # 1 for Si read from file:
     /fastscratch/tsievers/si_ph_benchmark_images//pseudos/Si.nc.UPF
     MD5 check sum: 9e2d726316af3d4752eea8ab0afbb951
     Pseudo is Norm-conserving + core correction, Zval =  4.0
     Generated using ONCVPSP code by D. R. Hamann
     Using radial grid of 1510 points,  6 beta functions with: 
                l(1) =   0
                l(2) =   0
                l(3) =   1
                l(4) =   1
                l(5) =   2
                l(6) =   2

     Mode symmetry, C_4v (4mm)  point group:


     Atomic displacements:
     There are    4 irreducible representations

     Representation     1      1 modes -  To be done

     Representation     2      1 modes -  To be done

     Representation     3      2 modes -  To be done

     Representation     4      2 modes -  To be done



     Alpha used in Ewald sum =   2.8000
     PHONON       :     48.37s CPU     53.71s WALL



     Representation #   1 mode #   1

     Self-consistent Calculation

      iter #   1 total cpu time :    54.9 secs   av.it.:   6.6
      thresh= 1.000E-02 alpha_mix =  0.700 |ddv_scf|^2 =  9.954E-05

      iter #   2 total cpu time :    56.4 secs   av.it.:   9.8
      thresh= 9.977E-04 alpha_mix =  0.700 |ddv_scf|^2 =  6.209E-04

      iter #   3 total cpu time :    57.7 secs   av.it.:   8.6
      thresh= 2.492E-03 alpha_mix =  0.700 |ddv_scf|^2 =  4.229E-09

      iter #   4 total cpu time :    59.3 secs   av.it.:  10.1
      thresh= 6.503E-06 alpha_mix =  0.700 |ddv_scf|^2 =  2.490E-10

      iter #   5 total cpu time :    60.8 secs   av.it.:  10.1
      thresh= 1.578E-06 alpha_mix =  0.700 |ddv_scf|^2 =  7.838E-12

      iter #   6 total cpu time :    62.4 secs   av.it.:  10.2
      thresh= 2.800E-07 alpha_mix =  0.700 |ddv_scf|^2 =  1.543E-13

      iter #   7 total cpu time :    63.9 secs   av.it.:   9.4
      thresh= 3.928E-08 alpha_mix =  0.700 |ddv_scf|^2 =  3.008E-16

     End of self-consistent calculation

     Convergence has been achieved 


     Representation #   2 mode #   2

     Self-consistent Calculation

      iter #   1 total cpu time :    65.0 secs   av.it.:   6.0
      thresh= 1.000E-02 alpha_mix =  0.700 |ddv_scf|^2 =  1.332E-06

      iter #   2 total cpu time :    66.6 secs   av.it.:  10.3
      thresh= 1.154E-04 alpha_mix =  0.700 |ddv_scf|^2 =  5.612E-07

      iter #   3 total cpu time :    68.1 secs   av.it.:   9.8
      thresh= 7.491E-05 alpha_mix =  0.700 |ddv_scf|^2 =  8.303E-10

      iter #   4 total cpu time :    69.7 secs   av.it.:  10.2
      thresh= 2.881E-06 alpha_mix =  0.700 |ddv_scf|^2 =  4.888E-11

      iter #   5 total cpu time :    71.3 secs   av.it.:  10.3
      thresh= 6.991E-07 alpha_mix =  0.700 |ddv_scf|^2 =  8.710E-14

      iter #   6 total cpu time :    72.9 secs   av.it.:  10.3
      thresh= 2.951E-08 alpha_mix =  0.700 |ddv_scf|^2 =  1.773E-15

      iter #   7 total cpu time :    74.4 secs   av.it.:  10.3
      thresh= 4.211E-09 alpha_mix =  0.700 |ddv_scf|^2 =  2.818E-17

     End of self-consistent calculation

     Convergence has been achieved 


     Representation #   3 modes #   3   4

     Self-consistent Calculation

      iter #   1 total cpu time :    76.7 secs   av.it.:   6.0
      thresh= 1.000E-02 alpha_mix =  0.700 |ddv_scf|^2 =  1.211E-07

      iter #   2 total cpu time :    80.0 secs   av.it.:  11.3
      thresh= 3.480E-05 alpha_mix =  0.700 |ddv_scf|^2 =  2.568E-08

      iter #   3 total cpu time :    83.2 secs   av.it.:  10.9
      thresh= 1.602E-05 alpha_mix =  0.700 |ddv_scf|^2 =  7.906E-11

      iter #   4 total cpu time :    86.6 secs   av.it.:  11.3
      thresh= 8.891E-07 alpha_mix =  0.700 |ddv_scf|^2 =  2.393E-13

      iter #   5 total cpu time :    91.8 secs   av.it.:  11.3
      thresh= 4.892E-08 alpha_mix =  0.700 |ddv_scf|^2 =  2.732E-15

      iter #   6 total cpu time :    95.3 secs   av.it.:  11.3
      thresh= 5.227E-09 alpha_mix =  0.700 |ddv_scf|^2 =  4.495E-17

     End of self-consistent calculation

     Convergence has been achieved 


     Representation #   4 modes #   5   6

     Self-consistent Calculation

      iter #   1 total cpu time :    97.6 secs   av.it.:   6.2
      thresh= 1.000E-02 alpha_mix =  0.700 |ddv_scf|^2 =  1.906E-07

      iter #   2 total cpu time :   101.0 secs   av.it.:  11.3
      thresh= 4.365E-05 alpha_mix =  0.700 |ddv_scf|^2 =  4.099E-08

      iter #   3 total cpu time :   104.3 secs   av.it.:  11.0
      thresh= 2.025E-05 alpha_mix =  0.700 |ddv_scf|^2 =  8.739E-11

      iter #   4 total cpu time :   107.6 secs   av.it.:  11.3
      thresh= 9.348E-07 alpha_mix =  0.700 |ddv_scf|^2 =  2.190E-13

      iter #   5 total cpu time :   111.3 secs   av.it.:  11.3
      thresh= 4.680E-08 alpha_mix =  0.700 |ddv_scf|^2 =  3.660E-15

      iter #   6 total cpu time :   115.4 secs   av.it.:  11.4
      thresh= 6.050E-09 alpha_mix =  0.700 |ddv_scf|^2 =  4.316E-17

     End of self-consistent calculation

     Convergence has been achieved 
 
     Number of q in the star =    6
     List of q in the star:
          1   0.000000000   0.666666667   0.000000000
          2   0.000000000  -0.666666667   0.000000000
          3   0.666666667   0.000000000   0.000000000
          4  -0.666666667   0.000000000   0.000000000
          5   0.000000000   0.000000000   0.666666667
          6   0.000000000   0.000000000  -0.666666667

     Diagonalizing the dynamical matrix

     q = (    0.000000000   0.666666667   0.000000000 ) 

 **************************************************************************
     freq (    1) =       4.039069 [THz] =     134.728844 [cm-1]
     freq (    2) =       4.039069 [THz] =     134.728844 [cm-1]
     freq (    3) =       9.188741 [THz] =     306.503392 [cm-1]
     freq (    4) =      13.988690 [THz] =     466.612479 [cm-1]
     freq (    5) =      13.988690 [THz] =     466.612479 [cm-1]
     freq (    6) =      14.186761 [THz] =     473.219395 [cm-1]
 **************************************************************************

     Mode symmetry, C_4v (4mm)  point group:

     freq (   1-   2) =        134.7  [cm-1]   --> E    G_5 D_5       
     freq (   3-   3) =        306.5  [cm-1]   --> A_1  G_1 D_1       
     freq (   4-   5) =        466.6  [cm-1]   --> E    G_5 D_5       
     freq (   6-   6) =        473.2  [cm-1]   --> B_2  G_4 D_2'      

     Calculation of q =    0.8333333  -0.1666667   0.8333333
 
     Parallelization info
     --------------------
     sticks:   dense  smooth     PW     G-vecs:    dense   smooth      PW
     Min         125     125     43                 2608     2608     534
     Max         126     126     44                 2611     2611     537
     Sum        1003    1003    349                20875    20875    4285
 
     Using Slab Decomposition
 

     Title: 
     default                                                                    


     bravais-lattice index     =            2
     lattice parameter (alat)  =      10.1899  a.u.
     unit-cell volume          =     264.5151 (a.u.)^3
     number of atoms/cell      =            2
     number of atomic types    =            1
     number of electrons       =         8.00
     number of Kohn-Sham states=            4
     kinetic-energy cutoff     =      70.0000  Ry
     charge density cutoff     =     280.0000  Ry
     Exchange-correlation= PW
                           (   1   4   0   0   0   0   0)

     celldm(1)=  10.189905  celldm(2)=   0.000000  celldm(3)=   0.000000
     celldm(4)=   0.000000  celldm(5)=   0.000000  celldm(6)=   0.000000

     crystal axes: (cart. coord. in units of alat)
               a(1) = (  -0.500000   0.000000   0.500000 )  
               a(2) = (   0.000000   0.500000   0.500000 )  
               a(3) = (  -0.500000   0.500000   0.000000 )  

     reciprocal axes: (cart. coord. in units 2 pi/alat)
               b(1) = ( -1.000000 -1.000000  1.000000 )  
               b(2) = (  1.000000  1.000000  1.000000 )  
               b(3) = ( -1.000000  1.000000 -1.000000 )  


     PseudoPot. # 1 for Si read from file:
     /fastscratch/tsievers/si_ph_benchmark_images//pseudos/Si.nc.UPF
     MD5 check sum: 9e2d726316af3d4752eea8ab0afbb951
     Pseudo is Norm-conserving + core correction, Zval =  4.0
     Generated using ONCVPSP code by D. R. Hamann
     Using radial grid of 1510 points,  6 beta functions with: 
                l(1) =   0
                l(2) =   0
                l(3) =   1
                l(4) =   1
                l(5) =   2
                l(6) =   2

     atomic species   valence    mass     pseudopotential
        Si             4.00    28.08550     Si( 1.00)

     48 Sym. Ops., with inversion, found



   Cartesian axes

     site n.     atom                  positions (alat units)
         1           Si  tau(   1) = (   0.0000000   0.0000000   0.0000000  )
         2           Si  tau(   2) = (  -0.2500000   0.2500000   0.2500000  )

     number of k points=   936

     Number of k-points >= 100: set verbosity='high' to print them.

     Dense  grid:    20875 G-vectors     FFT dimensions: (  40,  40,  40)

     Estimated max dynamical RAM per process >       2.67 MB

     Estimated total dynamical RAM >      21.39 MB

     The potential is recalculated from file :
     /fastscratch/tsievers/QE_TMP_DIR/_ph1/si_ph_bench_nimages_2_n_procs_16_4.save/charge-density

     Starting wfcs are    8 atomic wfcs

     Band Structure Calculation
     Davidson diagonalization with overlap

     ethr =  1.25E-10,  avg # of iterations = 12.8

     total cpu time spent up to now is       26.4 secs

     End of band structure calculation

     Number of k-points >= 100: set verbosity='high' to print the bands.

     highest occupied level (ev):     6.1106

     Writing config to output data dir /fastscratch/tsievers/QE_TMP_DIR/_ph1/si_ph_bench_nimages_2_n_procs_16_4.save/

     default                                                                    

     bravais-lattice index     =            2
     lattice parameter (alat)  =      10.1899  a.u.
     unit-cell volume          =     264.5151 (a.u.)^3
     number of atoms/cell      =            2
     number of atomic types    =            1
     kinetic-energy cut-off    =      70.0000  Ry
     charge density cut-off    =     280.0000  Ry
     convergence threshold     =      1.0E-15
     beta                      =       0.7000
     number of iterations used =            4
     Exchange-correlation= PW
                           (   1   4   0   0   0   0   0)


     celldm(1)=   10.18990  celldm(2)=    0.00000  celldm(3)=    0.00000
     celldm(4)=    0.00000  celldm(5)=    0.00000  celldm(6)=    0.00000

     crystal axes: (cart. coord. in units of alat)
               a(1) = ( -0.5000  0.0000  0.5000 )  
               a(2) = (  0.0000  0.5000  0.5000 )  
               a(3) = ( -0.5000  0.5000  0.0000 )  

     reciprocal axes: (cart. coord. in units 2 pi/alat)
               b(1) = ( -1.0000 -1.0000  1.0000 )  
               b(2) = (  1.0000  1.0000  1.0000 )  
               b(3) = ( -1.0000  1.0000 -1.0000 )  


     Atoms inside the unit cell: 

     Cartesian axes

     site n.  atom      mass           positions (alat units)
        1     Si  28.0855   tau(    1) = (    0.00000    0.00000    0.00000  )
        2     Si  28.0855   tau(    2) = (   -0.25000    0.25000    0.25000  )

     Computing dynamical matrix for 
                    q = (   0.8333333  -0.1666667   0.8333333 )
 
      2 Sym.Ops. (no q -> -q+G )


     G cutoff =  736.4420  (   2611 G-vectors)     FFT grid: ( 40, 40, 40)
     number of k points=   936

     PseudoPot. # 1 for Si read from file:
     /fastscratch/tsievers/si_ph_benchmark_images//pseudos/Si.nc.UPF
     MD5 check sum: 9e2d726316af3d4752eea8ab0afbb951
     Pseudo is Norm-conserving + core correction, Zval =  4.0
     Generated using ONCVPSP code by D. R. Hamann
     Using radial grid of 1510 points,  6 beta functions with: 
                l(1) =   0
                l(2) =   0
                l(3) =   1
                l(4) =   1
                l(5) =   2
                l(6) =   2

     Mode symmetry, C_s (m)     point group:


     Atomic displacements:
     There are    6 irreducible representations

     Representation     1      1 modes -  To be done

     Representation     2      1 modes -  To be done

     Representation     3      1 modes -  To be done

     Representation     4      1 modes -  To be done

     Representation     5      1 modes -  To be done

     Representation     6      1 modes -  To be done



     Alpha used in Ewald sum =   2.8000
     PHONON       :   2m 0.51s CPU   2m14.14s WALL



     Representation #   1 mode #   1

     Self-consistent Calculation

      iter #   1 total cpu time :   138.3 secs   av.it.:   6.5
      thresh= 1.000E-02 alpha_mix =  0.700 |ddv_scf|^2 =  1.083E-05

      iter #   2 total cpu time :   144.1 secs   av.it.:  10.4
      thresh= 3.292E-04 alpha_mix =  0.700 |ddv_scf|^2 =  2.655E-05

      iter #   3 total cpu time :   149.4 secs   av.it.:   9.4
      thresh= 5.153E-04 alpha_mix =  0.700 |ddv_scf|^2 =  1.234E-07

      iter #   4 total cpu time :   155.0 secs   av.it.:   9.9
      thresh= 3.512E-05 alpha_mix =  0.700 |ddv_scf|^2 =  9.140E-10

      iter #   5 total cpu time :   160.8 secs   av.it.:  10.4
      thresh= 3.023E-06 alpha_mix =  0.700 |ddv_scf|^2 =  1.580E-10

      iter #   6 total cpu time :   168.7 secs   av.it.:  10.3
      thresh= 1.257E-06 alpha_mix =  0.700 |ddv_scf|^2 =  3.222E-12

      iter #   7 total cpu time :   174.5 secs   av.it.:  10.5
      thresh= 1.795E-07 alpha_mix =  0.700 |ddv_scf|^2 =  1.087E-13

      iter #   8 total cpu time :   180.5 secs   av.it.:  10.6
      thresh= 3.297E-08 alpha_mix =  0.700 |ddv_scf|^2 =  2.950E-14

      iter #   9 total cpu time :   186.3 secs   av.it.:  10.2
      thresh= 1.717E-08 alpha_mix =  0.700 |ddv_scf|^2 =  2.230E-14

      iter #  10 total cpu time :   191.6 secs   av.it.:   9.6
      thresh= 1.493E-08 alpha_mix =  0.700 |ddv_scf|^2 =  7.631E-16

     End of self-consistent calculation

     Convergence has been achieved 


     Representation #   2 mode #   2

     Self-consistent Calculation

      iter #   1 total cpu time :   196.8 secs   av.it.:   6.5
      thresh= 1.000E-02 alpha_mix =  0.700 |ddv_scf|^2 =  1.040E-05

      iter #   2 total cpu time :   203.2 secs   av.it.:  10.5
      thresh= 3.225E-04 alpha_mix =  0.700 |ddv_scf|^2 =  2.545E-05

      iter #   3 total cpu time :   208.7 secs   av.it.:   9.5
      thresh= 5.045E-04 alpha_mix =  0.700 |ddv_scf|^2 =  1.219E-07

      iter #   4 total cpu time :   214.3 secs   av.it.:  10.0
      thresh= 3.491E-05 alpha_mix =  0.700 |ddv_scf|^2 =  8.401E-10

      iter #   5 total cpu time :   220.0 secs   av.it.:  10.4
      thresh= 2.899E-06 alpha_mix =  0.700 |ddv_scf|^2 =  9.369E-11

      iter #   6 total cpu time :   225.8 secs   av.it.:  10.4
      thresh= 9.679E-07 alpha_mix =  0.700 |ddv_scf|^2 =  5.830E-12

      iter #   7 total cpu time :   231.6 secs   av.it.:  10.5
      thresh= 2.415E-07 alpha_mix =  0.700 |ddv_scf|^2 =  2.963E-13

      iter #   8 total cpu time :   238.1 secs   av.it.:  10.5
      thresh= 5.443E-08 alpha_mix =  0.700 |ddv_scf|^2 =  2.453E-14

      iter #   9 total cpu time :   243.9 secs   av.it.:  10.2
      thresh= 1.566E-08 alpha_mix =  0.700 |ddv_scf|^2 =  1.977E-14

      iter #  10 total cpu time :   249.4 secs   av.it.:   9.8
      thresh= 1.406E-08 alpha_mix =  0.700 |ddv_scf|^2 =  1.479E-15

      iter #  11 total cpu time :   255.1 secs   av.it.:  10.1
      thresh= 3.846E-09 alpha_mix =  0.700 |ddv_scf|^2 =  5.984E-17

     End of self-consistent calculation

     Convergence has been achieved 


     Representation #   3 mode #   3

     Self-consistent Calculation

      iter #   1 total cpu time :   259.4 secs   av.it.:   6.3
      thresh= 1.000E-02 alpha_mix =  0.700 |ddv_scf|^2 =  4.968E-06

      iter #   2 total cpu time :   266.1 secs   av.it.:  10.4
      thresh= 2.229E-04 alpha_mix =  0.700 |ddv_scf|^2 =  9.934E-06

      iter #   3 total cpu time :   271.4 secs   av.it.:   9.4
      thresh= 3.152E-04 alpha_mix =  0.700 |ddv_scf|^2 =  1.553E-07

      iter #   4 total cpu time :   276.9 secs   av.it.:   9.8
      thresh= 3.941E-05 alpha_mix =  0.700 |ddv_scf|^2 =  5.816E-10

      iter #   5 total cpu time :   282.8 secs   av.it.:  10.5
      thresh= 2.412E-06 alpha_mix =  0.700 |ddv_scf|^2 =  1.651E-10

      iter #   6 total cpu time :   289.2 secs   av.it.:  10.2
      thresh= 1.285E-06 alpha_mix =  0.700 |ddv_scf|^2 =  3.633E-12

      iter #   7 total cpu time :   295.9 secs   av.it.:  10.5
      thresh= 1.906E-07 alpha_mix =  0.700 |ddv_scf|^2 =  1.259E-13

      iter #   8 total cpu time :   301.8 secs   av.it.:  10.6
      thresh= 3.549E-08 alpha_mix =  0.700 |ddv_scf|^2 =  1.596E-14

      iter #   9 total cpu time :   307.6 secs   av.it.:  10.3
      thresh= 1.263E-08 alpha_mix =  0.700 |ddv_scf|^2 =  1.035E-14

      iter #  10 total cpu time :   312.9 secs   av.it.:   9.5
      thresh= 1.017E-08 alpha_mix =  0.700 |ddv_scf|^2 =  2.426E-16

     End of self-consistent calculation

     Convergence has been achieved 


     Representation #   4 mode #   4

     Self-consistent Calculation

      iter #   1 total cpu time :   317.3 secs   av.it.:   6.3
      thresh= 1.000E-02 alpha_mix =  0.700 |ddv_scf|^2 =  4.531E-06

      iter #   2 total cpu time :   323.9 secs   av.it.:  10.6
      thresh= 2.128E-04 alpha_mix =  0.700 |ddv_scf|^2 =  8.805E-06

      iter #   3 total cpu time :   329.9 secs   av.it.:   9.6
      thresh= 2.967E-04 alpha_mix =  0.700 |ddv_scf|^2 =  1.545E-07

      iter #   4 total cpu time :   335.6 secs   av.it.:   9.9
      thresh= 3.931E-05 alpha_mix =  0.700 |ddv_scf|^2 =  7.811E-10

      iter #   5 total cpu time :   341.4 secs   av.it.:  10.4
      thresh= 2.795E-06 alpha_mix =  0.700 |ddv_scf|^2 =  1.933E-10

      iter #   6 total cpu time :   347.1 secs   av.it.:  10.2
      thresh= 1.390E-06 alpha_mix =  0.700 |ddv_scf|^2 =  5.378E-12

      iter #   7 total cpu time :   352.9 secs   av.it.:  10.6
      thresh= 2.319E-07 alpha_mix =  0.700 |ddv_scf|^2 =  2.505E-13

      iter #   8 total cpu time :   359.5 secs   av.it.:  10.5
      thresh= 5.005E-08 alpha_mix =  0.700 |ddv_scf|^2 =  1.733E-14

      iter #   9 total cpu time :   365.7 secs   av.it.:  10.3
      thresh= 1.317E-08 alpha_mix =  0.700 |ddv_scf|^2 =  9.692E-15

      iter #  10 total cpu time :   371.1 secs   av.it.:   9.8
      thresh= 9.845E-09 alpha_mix =  0.700 |ddv_scf|^2 =  6.081E-16

     End of self-consistent calculation

     Convergence has been achieved 


     Representation #   5 mode #   5

     Self-consistent Calculation

      iter #   1 total cpu time :   375.3 secs   av.it.:   6.0
      thresh= 1.000E-02 alpha_mix =  0.700 |ddv_scf|^2 =  6.809E-07

      iter #   2 total cpu time :   381.1 secs   av.it.:  10.3
      thresh= 8.251E-05 alpha_mix =  0.700 |ddv_scf|^2 =  1.580E-07

      iter #   3 total cpu time :   387.4 secs   av.it.:  10.0
      thresh= 3.975E-05 alpha_mix =  0.700 |ddv_scf|^2 =  3.437E-10

      iter #   4 total cpu time :   393.1 secs   av.it.:  10.3
      thresh= 1.854E-06 alpha_mix =  0.700 |ddv_scf|^2 =  7.465E-13

      iter #   5 total cpu time :   398.8 secs   av.it.:  10.4
      thresh= 8.640E-08 alpha_mix =  0.700 |ddv_scf|^2 =  1.217E-14

      iter #   6 total cpu time :   404.5 secs   av.it.:  10.4
      thresh= 1.103E-08 alpha_mix =  0.700 |ddv_scf|^2 =  1.912E-16

     End of self-consistent calculation

     Convergence has been achieved 


     Representation #   6 mode #   6

     Self-consistent Calculation

      iter #   1 total cpu time :   408.8 secs   av.it.:   6.0
      thresh= 1.000E-02 alpha_mix =  0.700 |ddv_scf|^2 =  6.809E-07

      iter #   2 total cpu time :   414.9 secs   av.it.:  10.3
      thresh= 8.251E-05 alpha_mix =  0.700 |ddv_scf|^2 =  1.580E-07

      iter #   3 total cpu time :   421.2 secs   av.it.:  10.0
      thresh= 3.975E-05 alpha_mix =  0.700 |ddv_scf|^2 =  3.437E-10

      iter #   4 total cpu time :   426.9 secs   av.it.:  10.3
      thresh= 1.854E-06 alpha_mix =  0.700 |ddv_scf|^2 =  7.465E-13

      iter #   5 total cpu time :   432.7 secs   av.it.:  10.4
      thresh= 8.640E-08 alpha_mix =  0.700 |ddv_scf|^2 =  1.217E-14

      iter #   6 total cpu time :   438.4 secs   av.it.:  10.4
      thresh= 1.103E-08 alpha_mix =  0.700 |ddv_scf|^2 =  1.911E-16

     End of self-consistent calculation

     Convergence has been achieved 
 
     Number of q in the star =   24
     List of q in the star:
          1   0.833333333  -0.166666667   0.833333333
          2   0.833333333  -0.166666667  -0.833333333
          3  -0.833333333  -0.166666667   0.833333333
          4  -0.833333333  -0.166666667  -0.833333333
          5  -0.833333333   0.166666667  -0.833333333
          6  -0.833333333   0.166666667   0.833333333
          7   0.833333333   0.166666667   0.833333333
          8   0.833333333   0.166666667  -0.833333333
          9  -0.166666667   0.833333333   0.833333333
         10   0.166666667   0.833333333  -0.833333333
         11  -0.166666667  -0.833333333  -0.833333333
         12  -0.166666667   0.833333333  -0.833333333
         13   0.833333333   0.833333333  -0.166666667
         14   0.833333333  -0.833333333   0.166666667
         15  -0.833333333  -0.833333333  -0.166666667
         16  -0.833333333   0.833333333   0.166666667
         17   0.166666667  -0.833333333   0.833333333
         18  -0.833333333   0.833333333  -0.166666667
         19   0.166666667   0.833333333   0.833333333
         20  -0.166666667  -0.833333333   0.833333333
         21  -0.833333333  -0.833333333   0.166666667
         22   0.833333333   0.833333333   0.166666667
         23   0.166666667  -0.833333333  -0.833333333
         24   0.833333333  -0.833333333  -0.166666667

     Diagonalizing the dynamical matrix

     q = (    0.833333333  -0.166666667   0.833333333 ) 

 **************************************************************************
     freq (    1) =       4.143159 [THz] =     138.200919 [cm-1]
     freq (    2) =       5.444513 [THz] =     181.609418 [cm-1]
     freq (    3) =      10.258682 [THz] =     342.192788 [cm-1]
     freq (    4) =      12.504333 [THz] =     417.099660 [cm-1]
     freq (    5) =      13.907230 [THz] =     463.895262 [cm-1]
     freq (    6) =      14.207684 [THz] =     473.917310 [cm-1]
 **************************************************************************

     Mode symmetry, C_s (m)     point group:

     freq (   1-   1) =        138.2  [cm-1]   --> A''                
     freq (   2-   2) =        181.6  [cm-1]   --> A'                 
     freq (   3-   3) =        342.2  [cm-1]   --> A'                 
     freq (   4-   4) =        417.1  [cm-1]   --> A'                 
     freq (   5-   5) =        463.9  [cm-1]   --> A''                
     freq (   6-   6) =        473.9  [cm-1]   --> A'                 

     Calculation of q =    0.6666667  -0.0000000   0.6666667
 
     Parallelization info
     --------------------
     sticks:   dense  smooth     PW     G-vecs:    dense   smooth      PW
     Min         125     125     43                 2608     2608     513
     Max         126     126     44                 2611     2611     514
     Sum        1003    1003    349                20875    20875    4111
 
     Using Slab Decomposition
 

     Title: 
     default                                                                    


     bravais-lattice index     =            2
     lattice parameter (alat)  =      10.1899  a.u.
     unit-cell volume          =     264.5151 (a.u.)^3
     number of atoms/cell      =            2
     number of atomic types    =            1
     number of electrons       =         8.00
     number of Kohn-Sham states=            4
     kinetic-energy cutoff     =      70.0000  Ry
     charge density cutoff     =     280.0000  Ry
     Exchange-correlation= PW
                           (   1   4   0   0   0   0   0)

     celldm(1)=  10.189905  celldm(2)=   0.000000  celldm(3)=   0.000000
     celldm(4)=   0.000000  celldm(5)=   0.000000  celldm(6)=   0.000000

     crystal axes: (cart. coord. in units of alat)
               a(1) = (  -0.500000   0.000000   0.500000 )  
               a(2) = (   0.000000   0.500000   0.500000 )  
               a(3) = (  -0.500000   0.500000   0.000000 )  

     reciprocal axes: (cart. coord. in units 2 pi/alat)
               b(1) = ( -1.000000 -1.000000  1.000000 )  
               b(2) = (  1.000000  1.000000  1.000000 )  
               b(3) = ( -1.000000  1.000000 -1.000000 )  


     PseudoPot. # 1 for Si read from file:
     /fastscratch/tsievers/si_ph_benchmark_images//pseudos/Si.nc.UPF
     MD5 check sum: 9e2d726316af3d4752eea8ab0afbb951
     Pseudo is Norm-conserving + core correction, Zval =  4.0
     Generated using ONCVPSP code by D. R. Hamann
     Using radial grid of 1510 points,  6 beta functions with: 
                l(1) =   0
                l(2) =   0
                l(3) =   1
                l(4) =   1
                l(5) =   2
                l(6) =   2

     atomic species   valence    mass     pseudopotential
        Si             4.00    28.08550     Si( 1.00)

     48 Sym. Ops., with inversion, found



   Cartesian axes

     site n.     atom                  positions (alat units)
         1           Si  tau(   1) = (   0.0000000   0.0000000   0.0000000  )
         2           Si  tau(   2) = (  -0.2500000   0.2500000   0.2500000  )

     number of k points=   468

     Number of k-points >= 100: set verbosity='high' to print them.

     Dense  grid:    20875 G-vectors     FFT dimensions: (  40,  40,  40)

     Estimated max dynamical RAM per process >       2.66 MB

     Estimated total dynamical RAM >      21.29 MB

     The potential is recalculated from file :
     /fastscratch/tsievers/QE_TMP_DIR/_ph1/si_ph_bench_nimages_2_n_procs_16_4.save/charge-density

     Starting wfcs are    8 atomic wfcs

     Band Structure Calculation
     Davidson diagonalization with overlap

     ethr =  1.25E-10,  avg # of iterations = 12.8

     total cpu time spent up to now is       35.1 secs

     End of band structure calculation

     Number of k-points >= 100: set verbosity='high' to print the bands.

     highest occupied level (ev):     6.1106

     Writing config to output data dir /fastscratch/tsievers/QE_TMP_DIR/_ph1/si_ph_bench_nimages_2_n_procs_16_4.save/

     default                                                                    

     bravais-lattice index     =            2
     lattice parameter (alat)  =      10.1899  a.u.
     unit-cell volume          =     264.5151 (a.u.)^3
     number of atoms/cell      =            2
     number of atomic types    =            1
     kinetic-energy cut-off    =      70.0000  Ry
     charge density cut-off    =     280.0000  Ry
     convergence threshold     =      1.0E-15
     beta                      =       0.7000
     number of iterations used =            4
     Exchange-correlation= PW
                           (   1   4   0   0   0   0   0)


     celldm(1)=   10.18990  celldm(2)=    0.00000  celldm(3)=    0.00000
     celldm(4)=    0.00000  celldm(5)=    0.00000  celldm(6)=    0.00000

     crystal axes: (cart. coord. in units of alat)
               a(1) = ( -0.5000  0.0000  0.5000 )  
               a(2) = (  0.0000  0.5000  0.5000 )  
               a(3) = ( -0.5000  0.5000  0.0000 )  

     reciprocal axes: (cart. coord. in units 2 pi/alat)
               b(1) = ( -1.0000 -1.0000  1.0000 )  
               b(2) = (  1.0000  1.0000  1.0000 )  
               b(3) = ( -1.0000  1.0000 -1.0000 )  


     Atoms inside the unit cell: 

     Cartesian axes

     site n.  atom      mass           positions (alat units)
        1     Si  28.0855   tau(    1) = (    0.00000    0.00000    0.00000  )
        2     Si  28.0855   tau(    2) = (   -0.25000    0.25000    0.25000  )

     Computing dynamical matrix for 
                    q = (   0.6666667  -0.0000000   0.6666667 )
 
      4 Sym.Ops. (no q -> -q+G )


     G cutoff =  736.4420  (   2611 G-vectors)     FFT grid: ( 40, 40, 40)
     number of k points=   468

     PseudoPot. # 1 for Si read from file:
     /fastscratch/tsievers/si_ph_benchmark_images//pseudos/Si.nc.UPF
     MD5 check sum: 9e2d726316af3d4752eea8ab0afbb951
     Pseudo is Norm-conserving + core correction, Zval =  4.0
     Generated using ONCVPSP code by D. R. Hamann
     Using radial grid of 1510 points,  6 beta functions with: 
                l(1) =   0
                l(2) =   0
                l(3) =   1
                l(4) =   1
                l(5) =   2
                l(6) =   2

     Mode symmetry, C_2v (mm2)  point group:


     Atomic displacements:
     There are    6 irreducible representations

     Representation     1      1 modes -  To be done

     Representation     2      1 modes -  To be done

     Representation     3      1 modes -  To be done

     Representation     4      1 modes -  To be done

     Representation     5      1 modes -  To be done

     Representation     6      1 modes -  To be done



     Alpha used in Ewald sum =   2.8000
     PHONON       :   6m51.83s CPU   7m28.93s WALL



     Representation #   1 mode #   1

     Self-consistent Calculation

      iter #   1 total cpu time :   451.0 secs   av.it.:   6.3
      thresh= 1.000E-02 alpha_mix =  0.700 |ddv_scf|^2 =  4.556E-06

      iter #   2 total cpu time :   454.0 secs   av.it.:  10.5
      thresh= 2.134E-04 alpha_mix =  0.700 |ddv_scf|^2 =  6.180E-06

      iter #   3 total cpu time :   456.7 secs   av.it.:   9.7
      thresh= 2.486E-04 alpha_mix =  0.700 |ddv_scf|^2 =  8.667E-08

      iter #   4 total cpu time :   459.5 secs   av.it.:   9.8
      thresh= 2.944E-05 alpha_mix =  0.700 |ddv_scf|^2 =  3.359E-10

      iter #   5 total cpu time :   462.3 secs   av.it.:  10.3
      thresh= 1.833E-06 alpha_mix =  0.700 |ddv_scf|^2 =  2.602E-12

      iter #   6 total cpu time :   465.2 secs   av.it.:  10.3
      thresh= 1.613E-07 alpha_mix =  0.700 |ddv_scf|^2 =  2.759E-14

      iter #   7 total cpu time :   468.1 secs   av.it.:  10.5
      thresh= 1.661E-08 alpha_mix =  0.700 |ddv_scf|^2 =  3.889E-15

      iter #   8 total cpu time :   471.1 secs   av.it.:  10.1
      thresh= 6.236E-09 alpha_mix =  0.700 |ddv_scf|^2 =  2.841E-15

      iter #   9 total cpu time :   473.8 secs   av.it.:   9.6
      thresh= 5.330E-09 alpha_mix =  0.700 |ddv_scf|^2 =  1.223E-17

     End of self-consistent calculation

     Convergence has been achieved 


     Representation #   2 mode #   2

     Self-consistent Calculation

      iter #   1 total cpu time :   476.1 secs   av.it.:   6.6
      thresh= 1.000E-02 alpha_mix =  0.700 |ddv_scf|^2 =  1.490E-05

      iter #   2 total cpu time :   479.0 secs   av.it.:  10.4
      thresh= 3.859E-04 alpha_mix =  0.700 |ddv_scf|^2 =  2.600E-05

      iter #   3 total cpu time :   481.7 secs   av.it.:   9.5
      thresh= 5.099E-04 alpha_mix =  0.700 |ddv_scf|^2 =  1.122E-07

      iter #   4 total cpu time :   486.8 secs   av.it.:   9.8
      thresh= 3.350E-05 alpha_mix =  0.700 |ddv_scf|^2 =  5.457E-10

      iter #   5 total cpu time :   489.6 secs   av.it.:  10.0
      thresh= 2.336E-06 alpha_mix =  0.700 |ddv_scf|^2 =  5.760E-12

      iter #   6 total cpu time :   492.4 secs   av.it.:  10.1
      thresh= 2.400E-07 alpha_mix =  0.700 |ddv_scf|^2 =  1.247E-13

      iter #   7 total cpu time :   495.2 secs   av.it.:  10.0
      thresh= 3.531E-08 alpha_mix =  0.700 |ddv_scf|^2 =  1.206E-15

      iter #   8 total cpu time :   498.1 secs   av.it.:  10.5
      thresh= 3.473E-09 alpha_mix =  0.700 |ddv_scf|^2 =  4.923E-16

     End of self-consistent calculation

     Convergence has been achieved 


     Representation #   3 mode #   3

     Self-consistent Calculation

      iter #   1 total cpu time :   500.4 secs   av.it.:   6.0
      thresh= 1.000E-02 alpha_mix =  0.700 |ddv_scf|^2 =  9.601E-07

      iter #   2 total cpu time :   503.3 secs   av.it.:  10.3
      thresh= 9.798E-05 alpha_mix =  0.700 |ddv_scf|^2 =  1.742E-07

      iter #   3 total cpu time :   506.1 secs   av.it.:  10.0
      thresh= 4.173E-05 alpha_mix =  0.700 |ddv_scf|^2 =  3.661E-10

      iter #   4 total cpu time :   508.9 secs   av.it.:  10.1
      thresh= 1.913E-06 alpha_mix =  0.700 |ddv_scf|^2 =  2.625E-13

      iter #   5 total cpu time :   511.8 secs   av.it.:  10.2
      thresh= 5.124E-08 alpha_mix =  0.700 |ddv_scf|^2 =  8.737E-15

      iter #   6 total cpu time :   515.4 secs   av.it.:  10.1
      thresh= 9.347E-09 alpha_mix =  0.700 |ddv_scf|^2 =  7.755E-17

     End of self-consistent calculation

     Convergence has been achieved 


     Representation #   4 mode #   4

     Self-consistent Calculation

      iter #   1 total cpu time :   517.3 secs   av.it.:   5.2
      thresh= 1.000E-02 alpha_mix =  0.700 |ddv_scf|^2 =  2.013E-08

      iter #   2 total cpu time :   520.5 secs   av.it.:  10.2
      thresh= 1.419E-05 alpha_mix =  0.700 |ddv_scf|^2 =  9.533E-10

      iter #   3 total cpu time :   523.3 secs   av.it.:  10.2
      thresh= 3.088E-06 alpha_mix =  0.700 |ddv_scf|^2 =  6.696E-12

      iter #   4 total cpu time :   526.1 secs   av.it.:   9.9
      thresh= 2.588E-07 alpha_mix =  0.700 |ddv_scf|^2 =  1.369E-13

      iter #   5 total cpu time :   529.5 secs   av.it.:  10.1
      thresh= 3.701E-08 alpha_mix =  0.700 |ddv_scf|^2 =  1.113E-15

      iter #   6 total cpu time :   533.0 secs   av.it.:  10.2
      thresh= 3.335E-09 alpha_mix =  0.700 |ddv_scf|^2 =  2.929E-18

     End of self-consistent calculation

     Convergence has been achieved 


     Representation #   5 mode #   5

     Self-consistent Calculation

      iter #   1 total cpu time :   535.0 secs   av.it.:   5.3
      thresh= 1.000E-02 alpha_mix =  0.700 |ddv_scf|^2 =  1.234E-07

      iter #   2 total cpu time :   539.6 secs   av.it.:  10.6
      thresh= 3.513E-05 alpha_mix =  0.700 |ddv_scf|^2 =  6.865E-08

      iter #   3 total cpu time :   543.9 secs   av.it.:  10.0
      thresh= 2.620E-05 alpha_mix =  0.700 |ddv_scf|^2 =  4.391E-09

      iter #   4 total cpu time :   547.4 secs   av.it.:  10.0
      thresh= 6.626E-06 alpha_mix =  0.700 |ddv_scf|^2 =  5.527E-11

      iter #   5 total cpu time :   550.7 secs   av.it.:  10.4
      thresh= 7.435E-07 alpha_mix =  0.700 |ddv_scf|^2 =  7.587E-13

      iter #   6 total cpu time :   554.2 secs   av.it.:  10.3
      thresh= 8.710E-08 alpha_mix =  0.700 |ddv_scf|^2 =  1.084E-15

      iter #   7 total cpu time :   557.1 secs   av.it.:  10.3
      thresh= 3.293E-09 alpha_mix =  0.700 |ddv_scf|^2 =  4.190E-17

     End of self-consistent calculation

     Convergence has been achieved 


     Representation #   6 mode #   6

     Self-consistent Calculation

      iter #   1 total cpu time :   559.3 secs   av.it.:   6.4
      thresh= 1.000E-02 alpha_mix =  0.700 |ddv_scf|^2 =  6.308E-06

      iter #   2 total cpu time :   562.3 secs   av.it.:  10.4
      thresh= 2.512E-04 alpha_mix =  0.700 |ddv_scf|^2 =  8.090E-06

      iter #   3 total cpu time :   565.1 secs   av.it.:   9.7
      thresh= 2.844E-04 alpha_mix =  0.700 |ddv_scf|^2 =  1.663E-09

      iter #   4 total cpu time :   567.9 secs   av.it.:  10.2
      thresh= 4.078E-06 alpha_mix =  0.700 |ddv_scf|^2 =  7.689E-11

      iter #   5 total cpu time :   570.9 secs   av.it.:  10.4
      thresh= 8.769E-07 alpha_mix =  0.700 |ddv_scf|^2 =  3.540E-13

      iter #   6 total cpu time :   573.8 secs   av.it.:  10.3
      thresh= 5.950E-08 alpha_mix =  0.700 |ddv_scf|^2 =  1.274E-14

      iter #   7 total cpu time :   577.3 secs   av.it.:  10.2
      thresh= 1.129E-08 alpha_mix =  0.700 |ddv_scf|^2 =  4.001E-17

     End of self-consistent calculation

     Convergence has been achieved 
 
     Number of q in the star =   12
     List of q in the star:
          1   0.666666667   0.000000000   0.666666667
          2  -0.666666667   0.000000000  -0.666666667
          3  -0.666666667   0.000000000   0.666666667
          4   0.666666667   0.000000000  -0.666666667
          5   0.000000000   0.666666667   0.666666667
          6   0.000000000   0.666666667  -0.666666667
          7   0.000000000  -0.666666667  -0.666666667
          8   0.666666667   0.666666667   0.000000000
          9   0.666666667  -0.666666667   0.000000000
         10  -0.666666667  -0.666666667   0.000000000
         11  -0.666666667   0.666666667   0.000000000
         12   0.000000000  -0.666666667   0.666666667

     Diagonalizing the dynamical matrix

     q = (    0.666666667  -0.000000000   0.666666667 ) 

 **************************************************************************
     freq (    1) =       4.251786 [THz] =     141.824315 [cm-1]
     freq (    2) =       6.420751 [THz] =     214.173195 [cm-1]
     freq (    3) =      10.134182 [THz] =     338.039939 [cm-1]
     freq (    4) =      11.355082 [THz] =     378.764770 [cm-1]
     freq (    5) =      13.957398 [THz] =     465.568691 [cm-1]
     freq (    6) =      14.514353 [THz] =     484.146699 [cm-1]
 **************************************************************************

     Mode symmetry, C_2v (mm2)  point group:

     freq (   1-   1) =        141.8  [cm-1]   --> B_1  D_3  S_3      
     freq (   2-   2) =        214.2  [cm-1]   --> B_2  D_4  S_4      
     freq (   3-   3) =        338.0  [cm-1]   --> A_1  D_1  S_1      
     freq (   4-   4) =        378.8  [cm-1]   --> B_2  D_4  S_4      
     freq (   5-   5) =        465.6  [cm-1]   --> A_2  D_2  S_2      
     freq (   6-   6) =        484.1  [cm-1]   --> A_1  D_1  S_1      

     Calculation of q =    0.0000000  -1.0000000   0.0000000
 
     Parallelization info
     --------------------
     sticks:   dense  smooth     PW     G-vecs:    dense   smooth      PW
     Min         125     125     42                 2608     2608     501
     Max         126     126     43                 2611     2611     503
     Sum        1003    1003    337                20875    20875    4015
 
     Using Slab Decomposition
 

     Title: 
     default                                                                    


     bravais-lattice index     =            2
     lattice parameter (alat)  =      10.1899  a.u.
     unit-cell volume          =     264.5151 (a.u.)^3
     number of atoms/cell      =            2
     number of atomic types    =            1
     number of electrons       =         8.00
     number of Kohn-Sham states=            4
     kinetic-energy cutoff     =      70.0000  Ry
     charge density cutoff     =     280.0000  Ry
     Exchange-correlation= PW
                           (   1   4   0   0   0   0   0)

     celldm(1)=  10.189905  celldm(2)=   0.000000  celldm(3)=   0.000000
     celldm(4)=   0.000000  celldm(5)=   0.000000  celldm(6)=   0.000000

     crystal axes: (cart. coord. in units of alat)
               a(1) = (  -0.500000   0.000000   0.500000 )  
               a(2) = (   0.000000   0.500000   0.500000 )  
               a(3) = (  -0.500000   0.500000   0.000000 )  

     reciprocal axes: (cart. coord. in units 2 pi/alat)
               b(1) = ( -1.000000 -1.000000  1.000000 )  
               b(2) = (  1.000000  1.000000  1.000000 )  
               b(3) = ( -1.000000  1.000000 -1.000000 )  


     PseudoPot. # 1 for Si read from file:
     /fastscratch/tsievers/si_ph_benchmark_images//pseudos/Si.nc.UPF
     MD5 check sum: 9e2d726316af3d4752eea8ab0afbb951
     Pseudo is Norm-conserving + core correction, Zval =  4.0
     Generated using ONCVPSP code by D. R. Hamann
     Using radial grid of 1510 points,  6 beta functions with: 
                l(1) =   0
                l(2) =   0
                l(3) =   1
                l(4) =   1
                l(5) =   2
                l(6) =   2

     atomic species   valence    mass     pseudopotential
        Si             4.00    28.08550     Si( 1.00)

     48 Sym. Ops., with inversion, found



   Cartesian axes

     site n.     atom                  positions (alat units)
         1           Si  tau(   1) = (   0.0000000   0.0000000   0.0000000  )
         2           Si  tau(   2) = (  -0.2500000   0.2500000   0.2500000  )

     number of k points=   126

     Number of k-points >= 100: set verbosity='high' to print them.

     Dense  grid:    20875 G-vectors     FFT dimensions: (  40,  40,  40)

     Estimated max dynamical RAM per process >       2.66 MB

     Estimated total dynamical RAM >      21.31 MB

     The potential is recalculated from file :
     /fastscratch/tsievers/QE_TMP_DIR/_ph1/si_ph_bench_nimages_2_n_procs_16_4.save/charge-density

     Starting wfcs are    8 atomic wfcs

     Band Structure Calculation
     Davidson diagonalization with overlap

     ethr =  1.25E-10,  avg # of iterations = 12.8

     total cpu time spent up to now is       38.4 secs

     End of band structure calculation

     Number of k-points >= 100: set verbosity='high' to print the bands.

     highest occupied level (ev):     6.1106

     Writing config to output data dir /fastscratch/tsievers/QE_TMP_DIR/_ph1/si_ph_bench_nimages_2_n_procs_16_4.save/

     default                                                                    

     bravais-lattice index     =            2
     lattice parameter (alat)  =      10.1899  a.u.
     unit-cell volume          =     264.5151 (a.u.)^3
     number of atoms/cell      =            2
     number of atomic types    =            1
     kinetic-energy cut-off    =      70.0000  Ry
     charge density cut-off    =     280.0000  Ry
     convergence threshold     =      1.0E-15
     beta                      =       0.7000
     number of iterations used =            4
     Exchange-correlation= PW
                           (   1   4   0   0   0   0   0)


     celldm(1)=   10.18990  celldm(2)=    0.00000  celldm(3)=    0.00000
     celldm(4)=    0.00000  celldm(5)=    0.00000  celldm(6)=    0.00000

     crystal axes: (cart. coord. in units of alat)
               a(1) = ( -0.5000  0.0000  0.5000 )  
               a(2) = (  0.0000  0.5000  0.5000 )  
               a(3) = ( -0.5000  0.5000  0.0000 )  

     reciprocal axes: (cart. coord. in units 2 pi/alat)
               b(1) = ( -1.0000 -1.0000  1.0000 )  
               b(2) = (  1.0000  1.0000  1.0000 )  
               b(3) = ( -1.0000  1.0000 -1.0000 )  


     Atoms inside the unit cell: 

     Cartesian axes

     site n.  atom      mass           positions (alat units)
        1     Si  28.0855   tau(    1) = (    0.00000    0.00000    0.00000  )
        2     Si  28.0855   tau(    2) = (   -0.25000    0.25000    0.25000  )

     Computing dynamical matrix for 
                    q = (   0.0000000  -1.0000000   0.0000000 )
 
     17 Sym.Ops. (with q -> -q+G )


     G cutoff =  736.4420  (   2611 G-vectors)     FFT grid: ( 40, 40, 40)
     number of k points=   126

     PseudoPot. # 1 for Si read from file:
     /fastscratch/tsievers/si_ph_benchmark_images//pseudos/Si.nc.UPF
     MD5 check sum: 9e2d726316af3d4752eea8ab0afbb951
     Pseudo is Norm-conserving + core correction, Zval =  4.0
     Generated using ONCVPSP code by D. R. Hamann
     Using radial grid of 1510 points,  6 beta functions with: 
                l(1) =   0
                l(2) =   0
                l(3) =   1
                l(4) =   1
                l(5) =   2
                l(6) =   2


     Atomic displacements:
     There are    3 irreducible representations

     Representation     1      2 modes -  To be done

     Representation     2      2 modes -  To be done

     Representation     3      2 modes -  To be done



     Alpha used in Ewald sum =   2.8000
     PHONON       :   8m49.90s CPU   9m40.14s WALL



     Representation #   1 modes #   1   2

     Self-consistent Calculation

      iter #   1 total cpu time :   581.2 secs   av.it.:   5.3
      thresh= 1.000E-02 alpha_mix =  0.700 |ddv_scf|^2 =  3.545E-09

      iter #   2 total cpu time :   583.0 secs   av.it.:  11.2
      thresh= 5.954E-06 alpha_mix =  0.700 |ddv_scf|^2 =  1.954E-10

      iter #   3 total cpu time :   584.8 secs   av.it.:  11.3
      thresh= 1.398E-06 alpha_mix =  0.700 |ddv_scf|^2 =  1.324E-12

      iter #   4 total cpu time :   586.5 secs   av.it.:  10.9
      thresh= 1.151E-07 alpha_mix =  0.700 |ddv_scf|^2 =  2.007E-14

      iter #   5 total cpu time :   588.2 secs   av.it.:  11.2
      thresh= 1.417E-08 alpha_mix =  0.700 |ddv_scf|^2 =  3.244E-17

     End of self-consistent calculation

     Convergence has been achieved 


     Representation #   2 modes #   3   4

     Self-consistent Calculation

      iter #   1 total cpu time :   589.5 secs   av.it.:   6.5
      thresh= 1.000E-02 alpha_mix =  0.700 |ddv_scf|^2 =  2.282E-06

      iter #   2 total cpu time :   591.3 secs   av.it.:  11.1
      thresh= 1.511E-04 alpha_mix =  0.700 |ddv_scf|^2 =  3.234E-06

      iter #   3 total cpu time :   592.9 secs   av.it.:  10.4
      thresh= 1.798E-04 alpha_mix =  0.700 |ddv_scf|^2 =  5.611E-10

      iter #   4 total cpu time :   594.7 secs   av.it.:  10.9
      thresh= 2.369E-06 alpha_mix =  0.700 |ddv_scf|^2 =  2.472E-11

      iter #   5 total cpu time :   596.4 secs   av.it.:  11.1
      thresh= 4.972E-07 alpha_mix =  0.700 |ddv_scf|^2 =  2.168E-13

      iter #   6 total cpu time :   598.1 secs   av.it.:  11.0
      thresh= 4.656E-08 alpha_mix =  0.700 |ddv_scf|^2 =  5.054E-15

      iter #   7 total cpu time :   599.8 secs   av.it.:  10.9
      thresh= 7.109E-09 alpha_mix =  0.700 |ddv_scf|^2 =  5.056E-17

     End of self-consistent calculation

     Convergence has been achieved 


     Representation #   3 modes #   5   6

     Self-consistent Calculation

      iter #   1 total cpu time :   601.1 secs   av.it.:   6.4
      thresh= 1.000E-02 alpha_mix =  0.700 |ddv_scf|^2 =  4.201E-07

      iter #   2 total cpu time :   602.9 secs   av.it.:  11.4
      thresh= 6.481E-05 alpha_mix =  0.700 |ddv_scf|^2 =  1.163E-07

      iter #   3 total cpu time :   604.7 secs   av.it.:  11.1
      thresh= 3.410E-05 alpha_mix =  0.700 |ddv_scf|^2 =  1.245E-10

      iter #   4 total cpu time :   606.5 secs   av.it.:  11.2
      thresh= 1.116E-06 alpha_mix =  0.700 |ddv_scf|^2 =  1.018E-13

      iter #   5 total cpu time :   608.2 secs   av.it.:  11.1
      thresh= 3.191E-08 alpha_mix =  0.700 |ddv_scf|^2 =  5.392E-15

      iter #   6 total cpu time :   609.9 secs   av.it.:  11.1
      thresh= 7.343E-09 alpha_mix =  0.700 |ddv_scf|^2 =  9.219E-18

     End of self-consistent calculation

     Convergence has been achieved 
 
     Number of q in the star =    3
     List of q in the star:
          1   0.000000000  -1.000000000   0.000000000
          2  -1.000000000   0.000000000   0.000000000
          3   0.000000000   0.000000000  -1.000000000

     Diagonalizing the dynamical matrix

     q = (    0.000000000  -1.000000000   0.000000000 ) 

 **************************************************************************
     freq (    1) =       4.101528 [THz] =     136.812247 [cm-1]
     freq (    2) =       4.101528 [THz] =     136.812247 [cm-1]
     freq (    3) =      12.261798 [THz] =     409.009557 [cm-1]
     freq (    4) =      12.261798 [THz] =     409.009557 [cm-1]
     freq (    5) =      13.855541 [THz] =     462.171085 [cm-1]
     freq (    6) =      13.855541 [THz] =     462.171085 [cm-1]
 **************************************************************************

     Calculation of q =    0.6666667  -0.3333333   1.0000000
 
     Parallelization info
     --------------------
     sticks:   dense  smooth     PW     G-vecs:    dense   smooth      PW
     Min         125     125     45                 2608     2608     558
     Max         126     126     46                 2611     2611     560
     Sum        1003    1003    361                20875    20875    4477
 
     Using Slab Decomposition
 

     Title: 
     default                                                                    


     bravais-lattice index     =            2
     lattice parameter (alat)  =      10.1899  a.u.
     unit-cell volume          =     264.5151 (a.u.)^3
     number of atoms/cell      =            2
     number of atomic types    =            1
     number of electrons       =         8.00
     number of Kohn-Sham states=            4
     kinetic-energy cutoff     =      70.0000  Ry
     charge density cutoff     =     280.0000  Ry
     Exchange-correlation= PW
                           (   1   4   0   0   0   0   0)

     celldm(1)=  10.189905  celldm(2)=   0.000000  celldm(3)=   0.000000
     celldm(4)=   0.000000  celldm(5)=   0.000000  celldm(6)=   0.000000

     crystal axes: (cart. coord. in units of alat)
               a(1) = (  -0.500000   0.000000   0.500000 )  
               a(2) = (   0.000000   0.500000   0.500000 )  
               a(3) = (  -0.500000   0.500000   0.000000 )  

     reciprocal axes: (cart. coord. in units 2 pi/alat)
               b(1) = ( -1.000000 -1.000000  1.000000 )  
               b(2) = (  1.000000  1.000000  1.000000 )  
               b(3) = ( -1.000000  1.000000 -1.000000 )  


     PseudoPot. # 1 for Si read from file:
     /fastscratch/tsievers/si_ph_benchmark_images//pseudos/Si.nc.UPF
     MD5 check sum: 9e2d726316af3d4752eea8ab0afbb951
     Pseudo is Norm-conserving + core correction, Zval =  4.0
     Generated using ONCVPSP code by D. R. Hamann
     Using radial grid of 1510 points,  6 beta functions with: 
                l(1) =   0
                l(2) =   0
                l(3) =   1
                l(4) =   1
                l(5) =   2
                l(6) =   2

     atomic species   valence    mass     pseudopotential
        Si             4.00    28.08550     Si( 1.00)

     48 Sym. Ops., with inversion, found



   Cartesian axes

     site n.     atom                  positions (alat units)
         1           Si  tau(   1) = (   0.0000000   0.0000000   0.0000000  )
         2           Si  tau(   2) = (  -0.2500000   0.2500000   0.2500000  )

     number of k points=   864

     Number of k-points >= 100: set verbosity='high' to print them.

     Dense  grid:    20875 G-vectors     FFT dimensions: (  40,  40,  40)

     Estimated max dynamical RAM per process >       2.68 MB

     Estimated total dynamical RAM >      21.41 MB

     The potential is recalculated from file :
     /fastscratch/tsievers/QE_TMP_DIR/_ph1/si_ph_bench_nimages_2_n_procs_16_4.save/charge-density

     Starting wfcs are    8 atomic wfcs

     Band Structure Calculation
     Davidson diagonalization with overlap

     ethr =  1.25E-10,  avg # of iterations = 12.8

     total cpu time spent up to now is       51.8 secs

     End of band structure calculation

     Number of k-points >= 100: set verbosity='high' to print the bands.

     highest occupied level (ev):     6.1106

     Writing config to output data dir /fastscratch/tsievers/QE_TMP_DIR/_ph1/si_ph_bench_nimages_2_n_procs_16_4.save/

     default                                                                    

     bravais-lattice index     =            2
     lattice parameter (alat)  =      10.1899  a.u.
     unit-cell volume          =     264.5151 (a.u.)^3
     number of atoms/cell      =            2
     number of atomic types    =            1
     kinetic-energy cut-off    =      70.0000  Ry
     charge density cut-off    =     280.0000  Ry
     convergence threshold     =      1.0E-15
     beta                      =       0.7000
     number of iterations used =            4
     Exchange-correlation= PW
                           (   1   4   0   0   0   0   0)


     celldm(1)=   10.18990  celldm(2)=    0.00000  celldm(3)=    0.00000
     celldm(4)=    0.00000  celldm(5)=    0.00000  celldm(6)=    0.00000

     crystal axes: (cart. coord. in units of alat)
               a(1) = ( -0.5000  0.0000  0.5000 )  
               a(2) = (  0.0000  0.5000  0.5000 )  
               a(3) = ( -0.5000  0.5000  0.0000 )  

     reciprocal axes: (cart. coord. in units 2 pi/alat)
               b(1) = ( -1.0000 -1.0000  1.0000 )  
               b(2) = (  1.0000  1.0000  1.0000 )  
               b(3) = ( -1.0000  1.0000 -1.0000 )  


     Atoms inside the unit cell: 

     Cartesian axes

     site n.  atom      mass           positions (alat units)
        1     Si  28.0855   tau(    1) = (    0.00000    0.00000    0.00000  )
        2     Si  28.0855   tau(    2) = (   -0.25000    0.25000    0.25000  )

     Computing dynamical matrix for 
                    q = (   0.6666667  -0.3333333   1.0000000 )
 
      2 Sym.Ops. (no q -> -q+G )


     G cutoff =  736.4420  (   2611 G-vectors)     FFT grid: ( 40, 40, 40)
     number of k points=   864

     PseudoPot. # 1 for Si read from file:
     /fastscratch/tsievers/si_ph_benchmark_images//pseudos/Si.nc.UPF
     MD5 check sum: 9e2d726316af3d4752eea8ab0afbb951
     Pseudo is Norm-conserving + core correction, Zval =  4.0
     Generated using ONCVPSP code by D. R. Hamann
     Using radial grid of 1510 points,  6 beta functions with: 
                l(1) =   0
                l(2) =   0
                l(3) =   1
                l(4) =   1
                l(5) =   2
                l(6) =   2


     Atomic displacements:
     There are    6 irreducible representations

     Representation     1      1 modes -  To be done

     Representation     2      1 modes -  To be done

     Representation     3      1 modes -  To be done

     Representation     4      1 modes -  To be done

     Representation     5      1 modes -  To be done

     Representation     6      1 modes -  To be done



     Alpha used in Ewald sum =   2.8000
     PHONON       :   9m30.80s CPU  10m25.60s WALL



     Representation #   1 mode #   1

     Self-consistent Calculation

      iter #   1 total cpu time :   629.4 secs   av.it.:   6.1
      thresh= 1.000E-02 alpha_mix =  0.700 |ddv_scf|^2 =  1.830E-06

      iter #   2 total cpu time :   634.8 secs   av.it.:  10.6
      thresh= 1.353E-04 alpha_mix =  0.700 |ddv_scf|^2 =  5.634E-06

      iter #   3 total cpu time :   639.7 secs   av.it.:   9.3
      thresh= 2.374E-04 alpha_mix =  0.700 |ddv_scf|^2 =  1.561E-07

      iter #   4 total cpu time :   644.8 secs   av.it.:   9.8
      thresh= 3.951E-05 alpha_mix =  0.700 |ddv_scf|^2 =  2.972E-10

      iter #   5 total cpu time :   650.2 secs   av.it.:  10.6
      thresh= 1.724E-06 alpha_mix =  0.700 |ddv_scf|^2 =  1.810E-11

      iter #   6 total cpu time :   655.5 secs   av.it.:  10.3
      thresh= 4.254E-07 alpha_mix =  0.700 |ddv_scf|^2 =  9.292E-14

      iter #   7 total cpu time :   662.4 secs   av.it.:  10.5
      thresh= 3.048E-08 alpha_mix =  0.700 |ddv_scf|^2 =  4.049E-15

      iter #   8 total cpu time :   667.9 secs   av.it.:  10.7
      thresh= 6.363E-09 alpha_mix =  0.700 |ddv_scf|^2 =  1.635E-15

      iter #   9 total cpu time :   672.9 secs   av.it.:   9.5
      thresh= 4.043E-09 alpha_mix =  0.700 |ddv_scf|^2 =  3.154E-16

     End of self-consistent calculation

     Convergence has been achieved 


     Representation #   2 mode #   2

     Self-consistent Calculation

      iter #   1 total cpu time :   676.7 secs   av.it.:   5.9
      thresh= 1.000E-02 alpha_mix =  0.700 |ddv_scf|^2 =  3.838E-07

      iter #   2 total cpu time :   682.3 secs   av.it.:  10.8
      thresh= 6.195E-05 alpha_mix =  0.700 |ddv_scf|^2 =  2.116E-07

      iter #   3 total cpu time :   688.1 secs   av.it.:  10.2
      thresh= 4.601E-05 alpha_mix =  0.700 |ddv_scf|^2 =  2.062E-09

      iter #   4 total cpu time :   694.2 secs   av.it.:  10.5
      thresh= 4.541E-06 alpha_mix =  0.700 |ddv_scf|^2 =  1.331E-10

      iter #   5 total cpu time :   699.6 secs   av.it.:  10.5
      thresh= 1.154E-06 alpha_mix =  0.700 |ddv_scf|^2 =  1.230E-12

      iter #   6 total cpu time :   705.2 secs   av.it.:  10.6
      thresh= 1.109E-07 alpha_mix =  0.700 |ddv_scf|^2 =  2.680E-14

      iter #   7 total cpu time :   710.6 secs   av.it.:  10.7
      thresh= 1.637E-08 alpha_mix =  0.700 |ddv_scf|^2 =  1.105E-15

      iter #   8 total cpu time :   716.1 secs   av.it.:  10.7
      thresh= 3.324E-09 alpha_mix =  0.700 |ddv_scf|^2 =  3.358E-17

     End of self-consistent calculation

     Convergence has been achieved 


     Representation #   3 mode #   3

     Self-consistent Calculation

      iter #   1 total cpu time :   720.2 secs   av.it.:   6.3
      thresh= 1.000E-02 alpha_mix =  0.700 |ddv_scf|^2 =  2.504E-06

      iter #   2 total cpu time :   726.3 secs   av.it.:  10.7
      thresh= 1.582E-04 alpha_mix =  0.700 |ddv_scf|^2 =  1.676E-06

      iter #   3 total cpu time :   731.6 secs   av.it.:  10.1
      thresh= 1.295E-04 alpha_mix =  0.700 |ddv_scf|^2 =  3.982E-09

      iter #   4 total cpu time :   737.0 secs   av.it.:  10.5
      thresh= 6.310E-06 alpha_mix =  0.700 |ddv_scf|^2 =  1.743E-10

      iter #   5 total cpu time :   742.4 secs   av.it.:  10.5
      thresh= 1.320E-06 alpha_mix =  0.700 |ddv_scf|^2 =  2.510E-12

      iter #   6 total cpu time :   747.8 secs   av.it.:  10.7
      thresh= 1.584E-07 alpha_mix =  0.700 |ddv_scf|^2 =  2.866E-14

      iter #   7 total cpu time :   753.2 secs   av.it.:  10.5
      thresh= 1.693E-08 alpha_mix =  0.700 |ddv_scf|^2 =  1.501E-15

      iter #   8 total cpu time :   760.0 secs   av.it.:  10.6
      thresh= 3.874E-09 alpha_mix =  0.700 |ddv_scf|^2 =  1.350E-17

     End of self-consistent calculation

     Convergence has been achieved 


     Representation #   4 mode #   4

     Self-consistent Calculation

      iter #   1 total cpu time :   764.2 secs   av.it.:   6.8
      thresh= 1.000E-02 alpha_mix =  0.700 |ddv_scf|^2 =  6.054E-05

      iter #   2 total cpu time :   770.0 secs   av.it.:  10.2
      thresh= 7.781E-04 alpha_mix =  0.700 |ddv_scf|^2 =  2.929E-04

      iter #   3 total cpu time :   774.9 secs   av.it.:   9.0
      thresh= 1.711E-03 alpha_mix =  0.700 |ddv_scf|^2 =  5.315E-08

      iter #   4 total cpu time :   780.1 secs   av.it.:  10.2
      thresh= 2.305E-05 alpha_mix =  0.700 |ddv_scf|^2 =  1.293E-09

      iter #   5 total cpu time :   786.0 secs   av.it.:  10.1
      thresh= 3.595E-06 alpha_mix =  0.700 |ddv_scf|^2 =  1.175E-11

      iter #   6 total cpu time :   791.3 secs   av.it.:  10.3
      thresh= 3.427E-07 alpha_mix =  0.700 |ddv_scf|^2 =  2.799E-13

      iter #   7 total cpu time :   796.4 secs   av.it.:   9.7
      thresh= 5.290E-08 alpha_mix =  0.700 |ddv_scf|^2 =  3.237E-14

      iter #   8 total cpu time :   801.8 secs   av.it.:   9.4
      thresh= 1.799E-08 alpha_mix =  0.700 |ddv_scf|^2 =  7.050E-15

      iter #   9 total cpu time :   806.8 secs   av.it.:   9.6
      thresh= 8.396E-09 alpha_mix =  0.700 |ddv_scf|^2 =  2.046E-16

     End of self-consistent calculation

     Convergence has been achieved 


     Representation #   5 mode #   5

     Self-consistent Calculation

      iter #   1 total cpu time :   810.7 secs   av.it.:   6.1
      thresh= 1.000E-02 alpha_mix =  0.700 |ddv_scf|^2 =  1.110E-06

      iter #   2 total cpu time :   816.8 secs   av.it.:  10.6
      thresh= 1.054E-04 alpha_mix =  0.700 |ddv_scf|^2 =  1.021E-06

      iter #   3 total cpu time :   821.9 secs   av.it.:   9.8
      thresh= 1.010E-04 alpha_mix =  0.700 |ddv_scf|^2 =  2.772E-07

      iter #   4 total cpu time :   826.8 secs   av.it.:   9.2
      thresh= 5.265E-05 alpha_mix =  0.700 |ddv_scf|^2 =  4.270E-10

      iter #   5 total cpu time :   832.2 secs   av.it.:  10.5
      thresh= 2.066E-06 alpha_mix =  0.700 |ddv_scf|^2 =  2.704E-11

      iter #   6 total cpu time :   837.5 secs   av.it.:  10.2
      thresh= 5.200E-07 alpha_mix =  0.700 |ddv_scf|^2 =  7.299E-14

      iter #   7 total cpu time :   842.9 secs   av.it.:  10.6
      thresh= 2.702E-08 alpha_mix =  0.700 |ddv_scf|^2 =  2.415E-14

      iter #   8 total cpu time :   848.9 secs   av.it.:  10.1
      thresh= 1.554E-08 alpha_mix =  0.700 |ddv_scf|^2 =  3.979E-14

      iter #   9 total cpu time :   853.8 secs   av.it.:   9.4
      thresh= 1.995E-08 alpha_mix =  0.700 |ddv_scf|^2 =  1.085E-16

     End of self-consistent calculation

     Convergence has been achieved 


     Representation #   6 mode #   6

     Self-consistent Calculation

      iter #   1 total cpu time :   858.1 secs   av.it.:   6.2
      thresh= 1.000E-02 alpha_mix =  0.700 |ddv_scf|^2 =  9.555E-07

      iter #   2 total cpu time :   864.6 secs   av.it.:  10.8
      thresh= 9.775E-05 alpha_mix =  0.700 |ddv_scf|^2 =  3.262E-07

      iter #   3 total cpu time :   869.9 secs   av.it.:  10.4
      thresh= 5.712E-05 alpha_mix =  0.700 |ddv_scf|^2 =  7.154E-09

      iter #   4 total cpu time :   875.3 secs   av.it.:  10.3
      thresh= 8.458E-06 alpha_mix =  0.700 |ddv_scf|^2 =  1.852E-10

      iter #   5 total cpu time :   881.3 secs   av.it.:  10.6
      thresh= 1.361E-06 alpha_mix =  0.700 |ddv_scf|^2 =  1.924E-12

      iter #   6 total cpu time :   886.9 secs   av.it.:  10.6
      thresh= 1.387E-07 alpha_mix =  0.700 |ddv_scf|^2 =  1.789E-14

      iter #   7 total cpu time :   892.2 secs   av.it.:  10.7
      thresh= 1.338E-08 alpha_mix =  0.700 |ddv_scf|^2 =  8.309E-16

     End of self-consistent calculation

     Convergence has been achieved 
 
     Number of q in the star =   24
     List of q in the star:
          1   0.666666667  -0.333333333   1.000000000
          2   1.000000000   0.333333333   0.666666667
          3   0.666666667   0.333333333   1.000000000
          4  -0.666666667  -0.333333333  -1.000000000
          5  -1.000000000  -0.333333333  -0.666666667
          6   1.000000000  -0.333333333   0.666666667
          7  -0.666666667   0.333333333  -1.000000000
          8   1.000000000   0.333333333  -0.666666667
          9  -0.333333333   1.000000000   0.666666667
         10   0.333333333   1.000000000  -0.666666667
         11  -0.333333333  -1.000000000  -0.666666667
         12  -0.333333333   0.666666667  -1.000000000
         13   1.000000000   0.666666667  -0.333333333
         14   1.000000000  -0.666666667   0.333333333
         15  -1.000000000  -0.666666667  -0.333333333
         16  -1.000000000   0.666666667   0.333333333
         17   0.333333333  -0.666666667   1.000000000
         18   0.333333333  -1.000000000   0.666666667
         19   0.333333333   0.666666667   1.000000000
         20  -0.333333333  -0.666666667  -1.000000000
         21   0.666666667  -1.000000000   0.333333333
         22  -0.666666667  -1.000000000   0.333333333
[...]

      iter #   4 total cpu time :  1106.0 secs   av.it.:  10.1
      thresh= 2.795E-05 alpha_mix =  0.700 |ddv_scf|^2 =  3.930E-10

      iter #   5 total cpu time :  1112.1 secs   av.it.:  10.5
      thresh= 1.982E-06 alpha_mix =  0.700 |ddv_scf|^2 =  9.974E-12

      iter #   6 total cpu time :  1117.9 secs   av.it.:  10.6
      thresh= 3.158E-07 alpha_mix =  0.700 |ddv_scf|^2 =  5.878E-14

      iter #   7 total cpu time :  1123.3 secs   av.it.:  10.5
      thresh= 2.425E-08 alpha_mix =  0.700 |ddv_scf|^2 =  7.328E-15

      iter #   8 total cpu time :  1128.8 secs   av.it.:  10.5
      thresh= 8.561E-09 alpha_mix =  0.700 |ddv_scf|^2 =  2.716E-15

      iter #   9 total cpu time :  1134.1 secs   av.it.:  10.0
      thresh= 5.212E-09 alpha_mix =  0.700 |ddv_scf|^2 =  3.506E-16

     End of self-consistent calculation

     Convergence has been achieved 


     Representation #   6 mode #   6

     Self-consistent Calculation

      iter #   1 total cpu time :  1138.9 secs   av.it.:   6.3
      thresh= 1.000E-02 alpha_mix =  0.700 |ddv_scf|^2 =  2.529E-06

      iter #   2 total cpu time :  1144.6 secs   av.it.:  10.7
      thresh= 1.590E-04 alpha_mix =  0.700 |ddv_scf|^2 =  2.773E-06

      iter #   3 total cpu time :  1149.7 secs   av.it.:   9.8
      thresh= 1.665E-04 alpha_mix =  0.700 |ddv_scf|^2 =  6.792E-08

      iter #   4 total cpu time :  1154.9 secs   av.it.:  10.0
      thresh= 2.606E-05 alpha_mix =  0.700 |ddv_scf|^2 =  2.216E-10

      iter #   5 total cpu time :  1160.3 secs   av.it.:  10.4
      thresh= 1.489E-06 alpha_mix =  0.700 |ddv_scf|^2 =  4.174E-12

      iter #   6 total cpu time :  1166.2 secs   av.it.:  10.5
      thresh= 2.043E-07 alpha_mix =  0.700 |ddv_scf|^2 =  1.957E-14

      iter #   7 total cpu time :  1172.0 secs   av.it.:  10.5
      thresh= 1.399E-08 alpha_mix =  0.700 |ddv_scf|^2 =  1.119E-15

      iter #   8 total cpu time :  1177.3 secs   av.it.:  10.7
      thresh= 3.345E-09 alpha_mix =  0.700 |ddv_scf|^2 =  2.321E-17

     End of self-consistent calculation

     Convergence has been achieved 
 
     Number of q in the star =   24
     List of q in the star:
          1   0.500000000  -0.166666667   0.833333333
          2   0.833333333   0.166666667   0.500000000
          3   0.500000000   0.166666667   0.833333333
          4  -0.500000000  -0.166666667  -0.833333333
          5  -0.500000000  -0.166666667   0.833333333
          6  -0.833333333  -0.166666667  -0.500000000
          7   0.833333333  -0.166666667   0.500000000
          8  -0.500000000   0.166666667  -0.833333333
          9  -0.500000000   0.166666667   0.833333333
         10   0.833333333  -0.166666667  -0.500000000
         11  -0.833333333  -0.166666667   0.500000000
         12   0.500000000   0.166666667  -0.833333333
         13  -0.833333333   0.166666667   0.500000000
         14   0.833333333   0.166666667  -0.500000000
         15  -0.833333333   0.166666667  -0.500000000
         16  -0.166666667   0.500000000  -0.833333333
         17   0.833333333   0.500000000  -0.166666667
         18  -0.833333333  -0.500000000  -0.166666667
         19  -0.833333333   0.500000000   0.166666667
         20   0.166666667  -0.500000000   0.833333333
         21  -0.166666667   0.500000000   0.833333333
         22   0.166666667   0.500000000  -0.833333333
         23  -0.166666667  -0.500000000  -0.833333333
         24  -0.500000000   0.833333333   0.166666667

     Diagonalizing the dynamical matrix

     q = (    0.500000000  -0.166666667   0.833333333 ) 

 **************************************************************************
     freq (    1) =       5.051969 [THz] =     168.515531 [cm-1]
     freq (    2) =       6.066575 [THz] =     202.359146 [cm-1]
     freq (    3) =       9.812875 [THz] =     327.322287 [cm-1]
     freq (    4) =      11.453228 [THz] =     382.038578 [cm-1]
     freq (    5) =      14.041861 [THz] =     468.386070 [cm-1]
     freq (    6) =      14.270907 [THz] =     476.026214 [cm-1]
 **************************************************************************

     Calculation of q =   -0.3333333  -1.0000000   0.0000000
 
     Parallelization info
     --------------------
     sticks:   dense  smooth     PW     G-vecs:    dense   smooth      PW
     Min         125     125     43                 2608     2608     533
     Max         126     126     44                 2611     2611     536
     Sum        1003    1003    349                20875    20875    4279
 
     Using Slab Decomposition
 

     Title: 
     default                                                                    


     bravais-lattice index     =            2
     lattice parameter (alat)  =      10.1899  a.u.
     unit-cell volume          =     264.5151 (a.u.)^3
     number of atoms/cell      =            2
     number of atomic types    =            1
     number of electrons       =         8.00
     number of Kohn-Sham states=            4
     kinetic-energy cutoff     =      70.0000  Ry
     charge density cutoff     =     280.0000  Ry
     Exchange-correlation= PW
                           (   1   4   0   0   0   0   0)

     celldm(1)=  10.189905  celldm(2)=   0.000000  celldm(3)=   0.000000
     celldm(4)=   0.000000  celldm(5)=   0.000000  celldm(6)=   0.000000

     crystal axes: (cart. coord. in units of alat)
               a(1) = (  -0.500000   0.000000   0.500000 )  
               a(2) = (   0.000000   0.500000   0.500000 )  
               a(3) = (  -0.500000   0.500000   0.000000 )  

     reciprocal axes: (cart. coord. in units 2 pi/alat)
               b(1) = ( -1.000000 -1.000000  1.000000 )  
               b(2) = (  1.000000  1.000000  1.000000 )  
               b(3) = ( -1.000000  1.000000 -1.000000 )  


     PseudoPot. # 1 for Si read from file:
     /fastscratch/tsievers/si_ph_benchmark_images//pseudos/Si.nc.UPF
     MD5 check sum: 9e2d726316af3d4752eea8ab0afbb951
     Pseudo is Norm-conserving + core correction, Zval =  4.0
     Generated using ONCVPSP code by D. R. Hamann
     Using radial grid of 1510 points,  6 beta functions with: 
                l(1) =   0
                l(2) =   0
                l(3) =   1
                l(4) =   1
                l(5) =   2
                l(6) =   2

     atomic species   valence    mass     pseudopotential
        Si             4.00    28.08550     Si( 1.00)

     48 Sym. Ops., with inversion, found



   Cartesian axes

     site n.     atom                  positions (alat units)
         1           Si  tau(   1) = (   0.0000000   0.0000000   0.0000000  )
         2           Si  tau(   2) = (  -0.2500000   0.2500000   0.2500000  )

     number of k points=   432

     Number of k-points >= 100: set verbosity='high' to print them.

     Dense  grid:    20875 G-vectors     FFT dimensions: (  40,  40,  40)

     Estimated max dynamical RAM per process >       2.67 MB

     Estimated total dynamical RAM >      21.34 MB

     The potential is recalculated from file :
     /fastscratch/tsievers/QE_TMP_DIR/_ph1/si_ph_bench_nimages_2_n_procs_16_4.save/charge-density

     Starting wfcs are    8 atomic wfcs

     Band Structure Calculation
     Davidson diagonalization with overlap

     ethr =  1.25E-10,  avg # of iterations = 12.8

     total cpu time spent up to now is       74.2 secs

     End of band structure calculation

     Number of k-points >= 100: set verbosity='high' to print the bands.

     highest occupied level (ev):     6.1106

     Writing config to output data dir /fastscratch/tsievers/QE_TMP_DIR/_ph1/si_ph_bench_nimages_2_n_procs_16_4.save/

     default                                                                    

     bravais-lattice index     =            2
     lattice parameter (alat)  =      10.1899  a.u.
     unit-cell volume          =     264.5151 (a.u.)^3
     number of atoms/cell      =            2
     number of atomic types    =            1
     kinetic-energy cut-off    =      70.0000  Ry
     charge density cut-off    =     280.0000  Ry
     convergence threshold     =      1.0E-15
     beta                      =       0.7000
     number of iterations used =            4
     Exchange-correlation= PW
                           (   1   4   0   0   0   0   0)


     celldm(1)=   10.18990  celldm(2)=    0.00000  celldm(3)=    0.00000
     celldm(4)=    0.00000  celldm(5)=    0.00000  celldm(6)=    0.00000

     crystal axes: (cart. coord. in units of alat)
               a(1) = ( -0.5000  0.0000  0.5000 )  
               a(2) = (  0.0000  0.5000  0.5000 )  
               a(3) = ( -0.5000  0.5000  0.0000 )  

     reciprocal axes: (cart. coord. in units 2 pi/alat)
               b(1) = ( -1.0000 -1.0000  1.0000 )  
               b(2) = (  1.0000  1.0000  1.0000 )  
               b(3) = ( -1.0000  1.0000 -1.0000 )  


     Atoms inside the unit cell: 

     Cartesian axes

     site n.  atom      mass           positions (alat units)
        1     Si  28.0855   tau(    1) = (    0.00000    0.00000    0.00000  )
        2     Si  28.0855   tau(    2) = (   -0.25000    0.25000    0.25000  )

     Computing dynamical matrix for 
                    q = (  -0.3333333  -1.0000000   0.0000000 )
 
      4 Sym.Ops. (no q -> -q+G )


     G cutoff =  736.4420  (   2611 G-vectors)     FFT grid: ( 40, 40, 40)
     number of k points=   432

     PseudoPot. # 1 for Si read from file:
     /fastscratch/tsievers/si_ph_benchmark_images//pseudos/Si.nc.UPF
     MD5 check sum: 9e2d726316af3d4752eea8ab0afbb951
     Pseudo is Norm-conserving + core correction, Zval =  4.0
     Generated using ONCVPSP code by D. R. Hamann
     Using radial grid of 1510 points,  6 beta functions with: 
                l(1) =   0
                l(2) =   0
                l(3) =   1
                l(4) =   1
                l(5) =   2
                l(6) =   2


     Atomic displacements:
     There are    3 irreducible representations

     Representation     1      2 modes -  To be done

     Representation     2      2 modes -  To be done

     Representation     3      2 modes -  To be done



     Alpha used in Ewald sum =   2.8000
     PHONON       :  18m10.19s CPU  19m47.35s WALL



     Representation #   1 modes #   1   2

     Self-consistent Calculation

      iter #   1 total cpu time :  1191.3 secs   av.it.:   6.2
      thresh= 1.000E-02 alpha_mix =  0.700 |ddv_scf|^2 =  5.042E-07

      iter #   2 total cpu time :  1197.0 secs   av.it.:  11.4
      thresh= 7.101E-05 alpha_mix =  0.700 |ddv_scf|^2 =  5.623E-07

      iter #   3 total cpu time :  1202.6 secs   av.it.:  10.8
      thresh= 7.498E-05 alpha_mix =  0.700 |ddv_scf|^2 =  4.579E-09

      iter #   4 total cpu time :  1208.1 secs   av.it.:  11.0
      thresh= 6.767E-06 alpha_mix =  0.700 |ddv_scf|^2 =  9.292E-11

      iter #   5 total cpu time :  1213.8 secs   av.it.:  11.1
      thresh= 9.639E-07 alpha_mix =  0.700 |ddv_scf|^2 =  1.074E-12

      iter #   6 total cpu time :  1219.6 secs   av.it.:  11.3
      thresh= 1.036E-07 alpha_mix =  0.700 |ddv_scf|^2 =  2.152E-14

      iter #   7 total cpu time :  1229.0 secs   av.it.:  11.2
      thresh= 1.467E-08 alpha_mix =  0.700 |ddv_scf|^2 =  1.127E-15

      iter #   8 total cpu time :  1234.7 secs   av.it.:  11.2
      thresh= 3.358E-09 alpha_mix =  0.700 |ddv_scf|^2 =  3.998E-17

     End of self-consistent calculation

     Convergence has been achieved 


     Representation #   2 modes #   3   4

     Self-consistent Calculation

      iter #   1 total cpu time :  1238.8 secs   av.it.:   6.4
      thresh= 1.000E-02 alpha_mix =  0.700 |ddv_scf|^2 =  9.142E-07

      iter #   2 total cpu time :  1244.6 secs   av.it.:  11.4
      thresh= 9.562E-05 alpha_mix =  0.700 |ddv_scf|^2 =  1.025E-06

      iter #   3 total cpu time :  1250.1 secs   av.it.:  10.8
      thresh= 1.012E-04 alpha_mix =  0.700 |ddv_scf|^2 =  8.859E-09

      iter #   4 total cpu time :  1256.9 secs   av.it.:  10.9
      thresh= 9.412E-06 alpha_mix =  0.700 |ddv_scf|^2 =  9.244E-11

      iter #   5 total cpu time :  1262.5 secs   av.it.:  11.1
      thresh= 9.615E-07 alpha_mix =  0.700 |ddv_scf|^2 =  2.106E-12

      iter #   6 total cpu time :  1268.3 secs   av.it.:  11.3
      thresh= 1.451E-07 alpha_mix =  0.700 |ddv_scf|^2 =  1.673E-14

      iter #   7 total cpu time :  1274.0 secs   av.it.:  11.2
      thresh= 1.293E-08 alpha_mix =  0.700 |ddv_scf|^2 =  1.062E-15

      iter #   8 total cpu time :  1279.6 secs   av.it.:  11.3
      thresh= 3.259E-09 alpha_mix =  0.700 |ddv_scf|^2 =  3.738E-17

     End of self-consistent calculation

     Convergence has been achieved 


     Representation #   3 modes #   5   6

     Self-consistent Calculation

      iter #   1 total cpu time :  1284.4 secs   av.it.:   6.5
      thresh= 1.000E-02 alpha_mix =  0.700 |ddv_scf|^2 =  1.211E-06

      iter #   2 total cpu time :  1290.7 secs   av.it.:  11.3
      thresh= 1.100E-04 alpha_mix =  0.700 |ddv_scf|^2 =  1.329E-06

      iter #   3 total cpu time :  1296.1 secs   av.it.:  10.7
      thresh= 1.153E-04 alpha_mix =  0.700 |ddv_scf|^2 =  1.072E-08

      iter #   4 total cpu time :  1301.6 secs   av.it.:  10.8
      thresh= 1.036E-05 alpha_mix =  0.700 |ddv_scf|^2 =  7.281E-11

      iter #   5 total cpu time :  1307.2 secs   av.it.:  11.1
      thresh= 8.533E-07 alpha_mix =  0.700 |ddv_scf|^2 =  6.916E-13

      iter #   6 total cpu time :  1313.7 secs   av.it.:  11.2
      thresh= 8.316E-08 alpha_mix =  0.700 |ddv_scf|^2 =  1.215E-14

      iter #   7 total cpu time :  1319.8 secs   av.it.:  11.1
      thresh= 1.102E-08 alpha_mix =  0.700 |ddv_scf|^2 =  7.299E-16

     End of self-consistent calculation

     Convergence has been achieved 
 
     Number of q in the star =   12
     List of q in the star:
          1  -0.333333333  -1.000000000   0.000000000
          2   0.333333333  -1.000000000   0.000000000
          3   0.000000000  -1.000000000   0.333333333
          4   0.000000000  -1.000000000  -0.333333333
          5  -1.000000000   0.000000000  -0.333333333
          6   1.000000000   0.000000000   0.333333333
          7  -1.000000000  -0.333333333   0.000000000
          8   0.000000000  -0.333333333  -1.000000000
          9   0.000000000   0.333333333   1.000000000
         10   1.000000000   0.333333333   0.000000000
         11  -0.333333333   0.000000000   1.000000000
         12   0.333333333   0.000000000   1.000000000

     Diagonalizing the dynamical matrix

     q = (   -0.333333333  -1.000000000   0.000000000 ) 

 **************************************************************************
     freq (    1) =       5.494530 [THz] =     183.277807 [cm-1]
     freq (    2) =       5.494530 [THz] =     183.277807 [cm-1]
     freq (    3) =      10.966326 [THz] =     365.797266 [cm-1]
     freq (    4) =      10.966326 [THz] =     365.797266 [cm-1]
     freq (    5) =      14.002128 [THz] =     467.060732 [cm-1]
     freq (    6) =      14.002128 [THz] =     467.060732 [cm-1]
 **************************************************************************
 
     init_run     :      0.26s CPU      0.29s WALL (       8 calls)
     electrons    :     64.53s CPU     67.06s WALL (       8 calls)

     Called by init_run:
     wfcinit      :      0.00s CPU      0.00s WALL (       8 calls)
     potinit      :      0.01s CPU      0.02s WALL (       8 calls)
     hinit0       :      0.07s CPU      0.08s WALL (       8 calls)

     Called by electrons:
     c_bands      :     64.53s CPU     67.06s WALL (       8 calls)
     v_of_rho     :      0.01s CPU      0.01s WALL (       9 calls)

     Called by c_bands:
     init_us_2    :     12.91s CPU     13.56s WALL (  121284 calls)
     init_us_2:cp :     12.60s CPU     13.29s WALL (  121284 calls)
     cegterg      :     52.85s CPU     54.85s WALL (    4410 calls)

     Called by *egterg:
     cdiaghg      :      3.46s CPU      3.63s WALL (   60848 calls)
     h_psi        :    849.88s CPU    888.99s WALL ( 1176648 calls)
     g_psi        :      0.49s CPU      0.51s WALL (   56438 calls)

     Called by h_psi:
     h_psi:calbec :     65.63s CPU     68.61s WALL ( 1176648 calls)
     vloc_psi     :    727.17s CPU    760.71s WALL ( 1176648 calls)
     add_vuspsi   :     46.25s CPU     48.99s WALL ( 1176648 calls)

     General routines
     calbec       :    116.03s CPU    122.31s WALL ( 2357860 calls)
     fft          :      0.28s CPU      0.33s WALL (    1674 calls)
     ffts         :      1.54s CPU      1.61s WALL (   12510 calls)
     fftw         :    813.08s CPU    849.85s WALL (10094128 calls)
     davcio       :      5.77s CPU     20.13s WALL (  510688 calls)
 
     Parallel routines
 
     PHONON       :  20m12.88s CPU  22m 0.58s WALL

     INITIALIZATION: 
     phq_setup    :      0.02s CPU      0.18s WALL (       8 calls)
     phq_init     :      3.13s CPU      3.72s WALL (       8 calls)
 
     phq_init     :      3.13s CPU      3.72s WALL (       8 calls)
     set_drhoc    :      0.52s CPU      0.52s WALL (      22 calls)
     init_vloc    :      0.02s CPU      0.02s WALL (       9 calls)
     init_us_1    :      0.02s CPU      0.03s WALL (       9 calls)
     init_us_2    :     12.91s CPU     13.56s WALL (  121284 calls)
 
     DYNAMICAL MATRIX:
     dynmat0      :      1.94s CPU      2.48s WALL (       7 calls)
     phqscf       :   1144.13s CPU   1233.63s WALL (       8 calls)
     dynmatrix    :     61.52s CPU     66.72s WALL (       7 calls)
 
     phqscf       :   1144.13s CPU   1233.63s WALL (       8 calls)
     solve_linter :   1139.65s CPU   1228.18s WALL (      36 calls)
     drhodv       :      4.44s CPU      4.70s WALL (      36 calls)
 
     dynmat0      :      1.94s CPU      2.48s WALL (       7 calls)
     dynmat_us    :      1.59s CPU      1.64s WALL (       7 calls)
     d2ionq       :      0.00s CPU      0.00s WALL (       7 calls)
     dynmatcc     :      0.34s CPU      0.34s WALL (       7 calls)
 
     dynmat_us    :      1.59s CPU      1.64s WALL (       7 calls)
 
     phqscf       :   1144.13s CPU   1233.63s WALL (       8 calls)
     solve_linter :   1139.65s CPU   1228.18s WALL (      36 calls)
 
     solve_linter :   1139.65s CPU   1228.18s WALL (      36 calls)
     dvqpsi_us    :     13.80s CPU     14.44s WALL (   12294 calls)
     sth_kernel   :   1114.02s CPU   1178.65s WALL (     276 calls)
     apply_dpot_b :     63.82s CPU     67.06s WALL (   85608 calls)
     ortho        :      3.51s CPU      3.70s WALL (   97902 calls)
     cgsolve      :    925.05s CPU    968.07s WALL (   97902 calls)
     incdrhoscf   :    103.18s CPU    106.68s WALL (   97902 calls)
     dv_of_drho   :      0.15s CPU      0.15s WALL (     329 calls)
     mix_pot      :      1.77s CPU     16.51s WALL (     276 calls)
     psymdvscf    :      3.01s CPU      3.09s WALL (     276 calls)
 
     dvqpsi_us    :     13.80s CPU     14.44s WALL (   12294 calls)
     dvqpsi_us_on :      3.10s CPU      3.25s WALL (   12294 calls)
 
     cgsolve      :    925.05s CPU    968.07s WALL (   97902 calls)
     ch_psi       :    901.80s CPU    943.24s WALL ( 1111390 calls)
 
     ch_psi       :    901.80s CPU    943.24s WALL ( 1111390 calls)
     h_psi        :    849.88s CPU    888.99s WALL ( 1176648 calls)
     last         :     87.90s CPU     92.05s WALL ( 1111390 calls)
 
     h_psi        :    849.88s CPU    888.99s WALL ( 1176648 calls)
     add_vuspsi   :     46.25s CPU     48.99s WALL ( 1176648 calls)
 
     incdrhoscf   :    103.18s CPU    106.68s WALL (   97902 calls)
 
 
      General routines
     calbec       :    116.03s CPU    122.31s WALL ( 2357860 calls)
     fft          :      0.28s CPU      0.33s WALL (    1674 calls)
     ffts         :      1.54s CPU      1.61s WALL (   12510 calls)
     fftw         :    813.08s CPU    849.85s WALL (10094128 calls)
     davcio       :      5.77s CPU     20.13s WALL (  510688 calls)
     write_rec    :      0.21s CPU      8.90s WALL (     312 calls)
 
     PHONON       :  20m12.88s CPU  22m 0.58s WALL

