Module for intel-oneAPI 2021.4 loaded.
 
:: initializing oneAPI environment ...
   3065508: BASH_VERSION = 4.4.20(1)-release
:: advisor -- latest
:: ccl -- latest
:: clck -- latest
:: compiler -- latest
:: dal -- latest
:: debugger -- latest
:: dev-utilities -- latest
:: dnnl -- latest
:: dpcpp-ct -- latest
:: dpl -- latest
:: inspector -- latest
:: intelpython -- latest
:: ipp -- latest
:: ippcp -- latest
:: ipp -- latest
:: itac -- latest
:: LPOT -- latest
:: mkl -- latest
:: modelzoo -- latest
:: mpi -- latest
:: pytorch -- latest
:: tbb -- latest
:: tensorflow -- latest
:: vpl -- latest
:: vtune -- latest
:: oneAPI environment initialized ::
 

     Program PWSCF v.7.0 starts on 26Jun2022 at  2: 0:29 

     This program is part of the open-source Quantum ESPRESSO suite
     for quantum simulation of materials; please cite
         "P. Giannozzi et al., J. Phys.:Condens. Matter 21 395502 (2009);
         "P. Giannozzi et al., J. Phys.:Condens. Matter 29 465901 (2017);
         "P. Giannozzi et al., J. Chem. Phys. 152 154105 (2020);
          URL http://www.quantum-espresso.org", 
     in publications or presentations arising from this work. More details at
     http://www.quantum-espresso.org/quote

     Parallel version (MPI), running on    16 processors

     MPI processes distributed on     1 nodes
     R & G space division:  proc/nbgrp/npool/nimage =      16
     2802 MiB available memory on the printing compute node when the environment starts
 
     Reading input from in_files/silicon_ph_bench_nd_1_n_procs_16_3.scf

     Current dimensions of program PWSCF are:
     Max number of different atomic species (ntypx) = 10
     Max number of k-points (npk) =  40000
     Max angular momentum in pseudopotentials (lmaxx) =  4

     Subspace diagonalization in iterative solution of the eigenvalue problem:
     a serial algorithm will be used

 
     Parallelization info
     --------------------
     sticks:   dense  smooth     PW     G-vecs:    dense   smooth      PW
     Min          62      62     18                 1303     1303     215
     Max          63      63     19                 1306     1306     218
     Sum        1003    1003    301                20875    20875    3479
 
     Using Slab Decomposition
 


     bravais-lattice index     =            2
     lattice parameter (alat)  =      10.1899  a.u.
     unit-cell volume          =     264.5151 (a.u.)^3
     number of atoms/cell      =            2
     number of atomic types    =            1
     number of electrons       =         8.00
     number of Kohn-Sham states=            4
     kinetic-energy cutoff     =      70.0000  Ry
     charge density cutoff     =     280.0000  Ry
     scf convergence threshold =      1.0E-10
     mixing beta               =       0.7000
     number of iterations used =            8  plain     mixing
     Exchange-correlation= SLA  PW   NOGX NOGC
                           (   1   4   0   0   0   0   0)

     celldm(1)=  10.189905  celldm(2)=   0.000000  celldm(3)=   0.000000
     celldm(4)=   0.000000  celldm(5)=   0.000000  celldm(6)=   0.000000

     crystal axes: (cart. coord. in units of alat)
               a(1) = (  -0.500000   0.000000   0.500000 )  
               a(2) = (   0.000000   0.500000   0.500000 )  
               a(3) = (  -0.500000   0.500000   0.000000 )  

     reciprocal axes: (cart. coord. in units 2 pi/alat)
               b(1) = ( -1.000000 -1.000000  1.000000 )  
               b(2) = (  1.000000  1.000000  1.000000 )  
               b(3) = ( -1.000000  1.000000 -1.000000 )  


     PseudoPot. # 1 for Si read from file:
     ./pseudos/Si.nc.UPF
     MD5 check sum: 9e2d726316af3d4752eea8ab0afbb951
     Pseudo is Norm-conserving + core correction, Zval =  4.0
     Generated using ONCVPSP code by D. R. Hamann
     Using radial grid of 1510 points,  6 beta functions with: 
                l(1) =   0
                l(2) =   0
                l(3) =   1
                l(4) =   1
                l(5) =   2
                l(6) =   2

     atomic species   valence    mass     pseudopotential
        Si             4.00    28.08550     Si( 1.00)

     48 Sym. Ops., with inversion, found (24 have fractional translation)



   Cartesian axes

     site n.     atom                  positions (alat units)
         1           Si  tau(   1) = (   0.0000000   0.0000000   0.0000000  )
         2           Si  tau(   2) = (  -0.2500000   0.2500000   0.2500000  )

     number of k points=    28
                       cart. coord. in units 2pi/alat
        k(    1) = (  -0.0833333   0.0833333   0.0833333), wk =   0.0185185
        k(    2) = (  -0.2500000   0.2500000  -0.0833333), wk =   0.0555556
        k(    3) = (  -0.4166667   0.4166667  -0.2500000), wk =   0.0555556
        k(    4) = (   0.4166667  -0.4166667   0.5833333), wk =   0.0555556
        k(    5) = (   0.2500000  -0.2500000   0.4166667), wk =   0.0555556
        k(    6) = (   0.0833333  -0.0833333   0.2500000), wk =   0.0555556
        k(    7) = (  -0.0833333   0.4166667   0.0833333), wk =   0.0555556
        k(    8) = (  -0.2500000   0.5833333  -0.0833333), wk =   0.1111111
        k(    9) = (   0.5833333  -0.2500000   0.7500000), wk =   0.1111111
        k(   10) = (   0.4166667  -0.0833333   0.5833333), wk =   0.1111111
        k(   11) = (   0.2500000   0.0833333   0.4166667), wk =   0.1111111
        k(   12) = (  -0.0833333   0.7500000   0.0833333), wk =   0.0555556
        k(   13) = (   0.7500000  -0.0833333   0.9166667), wk =   0.1111111
        k(   14) = (   0.5833333   0.0833333   0.7500000), wk =   0.1111111
        k(   15) = (   0.4166667   0.2500000   0.5833333), wk =   0.1111111
        k(   16) = (  -0.0833333  -0.9166667   0.0833333), wk =   0.0555556
        k(   17) = (  -0.2500000  -0.7500000  -0.0833333), wk =   0.1111111
        k(   18) = (  -0.0833333  -0.5833333   0.0833333), wk =   0.0555556
        k(   19) = (  -0.2500000   0.2500000   0.2500000), wk =   0.0185185
        k(   20) = (  -0.4166667   0.4166667   0.0833333), wk =   0.0555556
        k(   21) = (   0.4166667  -0.4166667   0.9166667), wk =   0.0555556
        k(   22) = (   0.2500000  -0.2500000   0.7500000), wk =   0.0555556
        k(   23) = (  -0.2500000   0.5833333   0.2500000), wk =   0.0555556
        k(   24) = (   0.5833333  -0.2500000   1.0833333), wk =   0.1111111
        k(   25) = (   0.4166667  -0.0833333   0.9166667), wk =   0.1111111
        k(   26) = (  -0.2500000  -1.0833333   0.2500000), wk =   0.0555556
        k(   27) = (  -0.4166667   0.4166667   0.4166667), wk =   0.0185185
        k(   28) = (   0.4166667  -0.4166667   1.2500000), wk =   0.0555556

     Dense  grid:    20875 G-vectors     FFT dimensions: (  40,  40,  40)

     Estimated max dynamical RAM per process >       2.64 MB

     Estimated total dynamical RAM >      42.22 MB

     Initial potential from superposition of free atoms

     starting charge       7.9989, renormalised to       8.0000
     Starting wfcs are    8 randomized atomic wfcs

     total cpu time spent up to now is        0.1 secs

     Self-consistent Calculation

     iteration #  1     ecut=    70.00 Ry     beta= 0.70
     Davidson diagonalization with overlap
     ethr =  1.00E-02,  avg # of iterations =  2.0

     Threshold (ethr) on eigenvalues was too large:
     Diagonalizing with lowered threshold

     Davidson diagonalization with overlap
     ethr =  6.13E-04,  avg # of iterations =  2.0

     total cpu time spent up to now is        0.3 secs

     total energy              =     -17.04762415 Ry
     estimated scf accuracy    <       0.05801829 Ry

     iteration #  2     ecut=    70.00 Ry     beta= 0.70
     Davidson diagonalization with overlap
     ethr =  7.25E-04,  avg # of iterations =  1.0

     total cpu time spent up to now is        0.4 secs

     total energy              =     -17.04995490 Ry
     estimated scf accuracy    <       0.00249702 Ry

     iteration #  3     ecut=    70.00 Ry     beta= 0.70
     Davidson diagonalization with overlap
     ethr =  3.12E-05,  avg # of iterations =  2.9

     total cpu time spent up to now is        0.5 secs

     total energy              =     -17.05082612 Ry
     estimated scf accuracy    <       0.00009470 Ry

     iteration #  4     ecut=    70.00 Ry     beta= 0.70
     Davidson diagonalization with overlap
     ethr =  1.18E-06,  avg # of iterations =  4.4

     total cpu time spent up to now is        0.6 secs

     total energy              =     -17.05089824 Ry
     estimated scf accuracy    <       0.00000243 Ry

     iteration #  5     ecut=    70.00 Ry     beta= 0.70
     Davidson diagonalization with overlap
     ethr =  3.04E-08,  avg # of iterations =  4.9

     total cpu time spent up to now is        0.7 secs

     total energy              =     -17.05090101 Ry
     estimated scf accuracy    <       0.00000013 Ry

     iteration #  6     ecut=    70.00 Ry     beta= 0.70
     Davidson diagonalization with overlap
     ethr =  1.61E-09,  avg # of iterations =  3.2

     total cpu time spent up to now is        0.8 secs

     total energy              =     -17.05090106 Ry
     estimated scf accuracy    <       0.00000001 Ry

     iteration #  7     ecut=    70.00 Ry     beta= 0.70
     Davidson diagonalization with overlap
     ethr =  1.71E-10,  avg # of iterations =  2.9

     total cpu time spent up to now is        0.9 secs

     End of self-consistent calculation

          k =-0.0833 0.0833 0.0833 (  2667 PWs)   bands (ev):

    -5.7561   5.3866   6.1106   6.1106

          k =-0.2500 0.2500-0.0833 (  2621 PWs)   bands (ev):

    -5.2692   3.2787   4.8359   5.9020

          k =-0.4167 0.4167-0.2500 (  2618 PWs)   bands (ev):

    -4.1491   0.4558   4.3704   5.2525

          k = 0.4167-0.4167 0.5833 (  2604 PWs)   bands (ev):

    -3.4238  -0.7235   4.4440   4.8612

          k = 0.2500-0.2500 0.4167 (  2618 PWs)   bands (ev):

    -4.5725   1.3222   4.9163   4.9543

          k = 0.0833-0.0833 0.2500 (  2643 PWs)   bands (ev):

    -5.5104   4.3092   5.4447   5.6431

          k =-0.0833 0.4167 0.0833 (  2627 PWs)   bands (ev):

    -5.0231   3.1094   4.6844   4.6977

          k =-0.2500 0.5833-0.0833 (  2613 PWs)   bands (ev):

    -4.0918   1.2428   3.3199   4.3008

          k = 0.5833-0.2500 0.7500 (  2616 PWs)   bands (ev):

    -2.9383  -0.5645   2.7090   4.0652

          k = 0.4167-0.0833 0.5833 (  2617 PWs)   bands (ev):

    -3.6856   0.5301   2.6549   4.5685

          k = 0.2500 0.0833 0.4167 (  2624 PWs)   bands (ev):

    -4.7922   2.2460   4.0374   5.2604

          k =-0.0833 0.7500 0.0833 (  2617 PWs)   bands (ev):

    -3.3664   0.4197   3.2861   3.6484

          k = 0.7500-0.0833 0.9167 (  2608 PWs)   bands (ev):

    -2.1400  -0.9430   2.4039   3.2177

          k = 0.5833 0.0833 0.7500 (  2608 PWs)   bands (ev):

    -2.5099  -0.6178   1.9049   3.7798

          k = 0.4167 0.2500 0.5833 (  2622 PWs)   bands (ev):

    -3.5664  -0.1967   3.6417   4.6731

          k =-0.0833-0.9167 0.0833 (  2604 PWs)   bands (ev):

    -2.2385  -0.9535   3.0091   3.4291

          k =-0.2500-0.7500-0.0833 (  2615 PWs)   bands (ev):

    -3.1914   0.1893   2.7413   3.5675

          k =-0.0833-0.5833 0.0833 (  2620 PWs)   bands (ev):

    -4.3033   1.8031   3.8480   4.0788

          k =-0.2500 0.2500 0.2500 (  2632 PWs)   bands (ev):

    -5.0343   2.2731   5.4857   5.4857

          k =-0.4167 0.4167 0.0833 (  2620 PWs)   bands (ev):

    -4.3392   1.3430   3.2813   5.3165

          k = 0.4167-0.4167 0.9167 (  2613 PWs)   bands (ev):

    -3.1274  -0.1140   2.1362   4.5076

          k = 0.2500-0.2500 0.7500 (  2618 PWs)   bands (ev):

    -3.0761  -0.1941   2.6355   4.0115

          k =-0.2500 0.5833 0.2500 (  2613 PWs)   bands (ev):

    -3.9042   0.5133   3.7736   4.3933

          k = 0.5833-0.2500 1.0833 (  2619 PWs)   bands (ev):

    -2.8765  -0.2149   2.2381   3.5572

          k = 0.4167-0.0833 0.9167 (  2613 PWs)   bands (ev):

    -2.0245  -0.9506   2.0592   2.8637

          k =-0.2500-1.0833 0.2500 (  2605 PWs)   bands (ev):

    -2.2385  -0.8649   1.9289   3.8127

          k =-0.4167 0.4167 0.4167 (  2602 PWs)   bands (ev):

    -3.8074  -0.3119   5.0941   5.0941

          k = 0.4167-0.4167 1.2500 (  2605 PWs)   bands (ev):

    -3.1840  -0.6106   3.2018   4.6388

     highest occupied level (ev):     6.1106

!    total energy              =     -17.05090107 Ry
     estimated scf accuracy    <          4.9E-11 Ry

     The total energy is the sum of the following terms:
     one-electron contribution =       5.01080542 Ry
     hartree contribution      =       1.07710563 Ry
     xc contribution           =      -6.22231085 Ry
     ewald contribution        =     -16.91650128 Ry

     convergence has been achieved in   7 iterations

     Forces acting on atoms (cartesian axes, Ry/au):

     atom    1 type  1   force =     0.00000000    0.00000000   -0.00000000
     atom    2 type  1   force =     0.00000000    0.00000000    0.00000000

     Total force =     0.000000     Total SCF correction =     0.000000

     Writing all to output data dir /fastscratch/tsievers/QE_TMP_DIR/silicon_ph_bench_nd_1_n_procs_16_3.save/
 
     init_run     :      0.05s CPU      0.09s WALL (       1 calls)
     electrons    :      0.72s CPU      0.76s WALL (       1 calls)
     forces       :      0.01s CPU      0.01s WALL (       1 calls)

     Called by init_run:
     wfcinit      :      0.04s CPU      0.04s WALL (       1 calls)
     potinit      :      0.00s CPU      0.00s WALL (       1 calls)
     hinit0       :      0.01s CPU      0.03s WALL (       1 calls)

     Called by electrons:
     c_bands      :      0.63s CPU      0.65s WALL (       8 calls)
     sum_band     :      0.08s CPU      0.08s WALL (       8 calls)
     v_of_rho     :      0.00s CPU      0.00s WALL (       8 calls)
     mix_rho      :      0.00s CPU      0.00s WALL (       8 calls)

     Called by c_bands:
     init_us_2    :      0.03s CPU      0.03s WALL (     504 calls)
     init_us_2:cp :      0.03s CPU      0.03s WALL (     504 calls)
     cegterg      :      0.52s CPU      0.53s WALL (     224 calls)

     Called by *egterg:
     cdiaghg      :      0.03s CPU      0.04s WALL (     852 calls)
     h_psi        :      0.46s CPU      0.48s WALL (     908 calls)
     g_psi        :      0.00s CPU      0.00s WALL (     656 calls)

     Called by h_psi:
     h_psi:calbec :      0.03s CPU      0.03s WALL (     908 calls)
     vloc_psi     :      0.40s CPU      0.42s WALL (     908 calls)
     add_vuspsi   :      0.02s CPU      0.02s WALL (     908 calls)

     General routines
     calbec       :      0.03s CPU      0.03s WALL (    1020 calls)
     fft          :      0.00s CPU      0.03s WALL (      28 calls)
     ffts         :      0.00s CPU      0.00s WALL (       8 calls)
     fftw         :      0.42s CPU      0.44s WALL (    7058 calls)
 
     Parallel routines
 
     PWSCF        :      0.84s CPU      1.56s WALL

 
   This run was terminated on:   2: 0:30  26Jun2022            

=------------------------------------------------------------------------------=
   JOB DONE.
=------------------------------------------------------------------------------=

     Program PHONON v.7.0 starts on 26Jun2022 at  2: 0:33 

     This program is part of the open-source Quantum ESPRESSO suite
     for quantum simulation of materials; please cite
         "P. Giannozzi et al., J. Phys.:Condens. Matter 21 395502 (2009);
         "P. Giannozzi et al., J. Phys.:Condens. Matter 29 465901 (2017);
         "P. Giannozzi et al., J. Chem. Phys. 152 154105 (2020);
          URL http://www.quantum-espresso.org", 
     in publications or presentations arising from this work. More details at
     http://www.quantum-espresso.org/quote

     Parallel version (MPI), running on    16 processors

     MPI processes distributed on     1 nodes
     R & G space division:  proc/nbgrp/npool/nimage =      16
     2803 MiB available memory on the printing compute node when the environment starts
 
     Reading input from in_files/silicon_ph_bench_nd_1_n_procs_16_3.ph
      Title line not specified: using 'default'.

     Reading xml data from directory:

     /fastscratch/tsievers/QE_TMP_DIR/silicon_ph_bench_nd_1_n_procs_16_3.save/

     IMPORTANT: XC functional enforced from input :
     Exchange-correlation= PW
                           (   1   4   0   0   0   0   0)
     Any further DFT definition will be discarded
     Please, verify this is what you really want

 
     Parallelization info
     --------------------
     sticks:   dense  smooth     PW     G-vecs:    dense   smooth      PW
     Min          62      62     18                 1303     1303     215
     Max          63      63     19                 1306     1306     218
     Sum        1003    1003    301                20875    20875    3479
 
     Using Slab Decomposition
 
     Reading collected, re-writing distributed wavefunctions


     Dynamical matrices for ( 6, 6, 6)  uniform grid of q-points
     (  16 q-points):
       N         xq(1)         xq(2)         xq(3) 
       1   0.000000000   0.000000000   0.000000000
       2  -0.166666667   0.166666667  -0.166666667
       3  -0.333333333   0.333333333  -0.333333333
       4   0.500000000  -0.500000000   0.500000000
       5   0.000000000   0.333333333   0.000000000
       6  -0.166666667   0.500000000  -0.166666667
       7   0.666666667  -0.333333333   0.666666667
       8   0.500000000  -0.166666667   0.500000000
       9   0.333333333   0.000000000   0.333333333
      10   0.000000000   0.666666667   0.000000000
      11   0.833333333  -0.166666667   0.833333333
      12   0.666666667  -0.000000000   0.666666667
      13   0.000000000  -1.000000000   0.000000000
      14   0.666666667  -0.333333333   1.000000000
      15   0.500000000  -0.166666667   0.833333333
      16  -0.333333333  -1.000000000   0.000000000

     Calculation of q =    0.0000000   0.0000000   0.0000000

     default                                                                    

     bravais-lattice index     =            2
     lattice parameter (alat)  =      10.1899  a.u.
     unit-cell volume          =     264.5151 (a.u.)^3
     number of atoms/cell      =            2
     number of atomic types    =            1
     kinetic-energy cut-off    =      70.0000  Ry
     charge density cut-off    =     280.0000  Ry
     convergence threshold     =      1.0E-15
     beta                      =       0.7000
     number of iterations used =            4
     Exchange-correlation= PW
                           (   1   4   0   0   0   0   0)


     celldm(1)=   10.18990  celldm(2)=    0.00000  celldm(3)=    0.00000
     celldm(4)=    0.00000  celldm(5)=    0.00000  celldm(6)=    0.00000

     crystal axes: (cart. coord. in units of alat)
               a(1) = ( -0.5000  0.0000  0.5000 )  
               a(2) = (  0.0000  0.5000  0.5000 )  
               a(3) = ( -0.5000  0.5000  0.0000 )  

     reciprocal axes: (cart. coord. in units 2 pi/alat)
               b(1) = ( -1.0000 -1.0000  1.0000 )  
               b(2) = (  1.0000  1.0000  1.0000 )  
               b(3) = ( -1.0000  1.0000 -1.0000 )  


     Atoms inside the unit cell: 

     Cartesian axes

     site n.  atom      mass           positions (alat units)
        1     Si  28.0855   tau(    1) = (    0.00000    0.00000    0.00000  )
        2     Si  28.0855   tau(    2) = (   -0.25000    0.25000    0.25000  )

     Computing dynamical matrix for 
                    q = (   0.0000000   0.0000000   0.0000000 )
 
     49 Sym.Ops. (with q -> -q+G )


     G cutoff =  736.4420  (   1306 G-vectors)     FFT grid: ( 40, 40, 40)
     number of k points=    28

     PseudoPot. # 1 for Si read from file:
     ./pseudos/Si.nc.UPF
     MD5 check sum: 9e2d726316af3d4752eea8ab0afbb951
     Pseudo is Norm-conserving + core correction, Zval =  4.0
     Generated using ONCVPSP code by D. R. Hamann
     Using radial grid of 1510 points,  6 beta functions with: 
                l(1) =   0
                l(2) =   0
                l(3) =   1
                l(4) =   1
                l(5) =   2
                l(6) =   2

     Mode symmetry, O_h (m-3m)  point group:


     Electric field:
     Dielectric constant
     Born effective charges in two ways 


     Atomic displacements:
     There are    2 irreducible representations

     Representation     1      3 modes -  To be done

     Representation     2      3 modes -  To be done



     Alpha used in Ewald sum =   2.8000
     PHONON       :      0.37s CPU      0.63s WALL


     Electric Fields Calculation

      iter #   1 total cpu time :     2.6 secs   av.it.:   6.5
      thresh= 1.000E-02 alpha_mix =  0.700 |ddv_scf|^2 =  7.990E-08

      iter #   2 total cpu time :     4.0 secs   av.it.:  11.9
      thresh= 2.827E-05 alpha_mix =  0.700 |ddv_scf|^2 =  3.424E-09

      iter #   3 total cpu time :     5.1 secs   av.it.:  11.7
      thresh= 5.852E-06 alpha_mix =  0.700 |ddv_scf|^2 =  3.860E-11

      iter #   4 total cpu time :     6.2 secs   av.it.:  12.0
      thresh= 6.213E-07 alpha_mix =  0.700 |ddv_scf|^2 =  2.290E-13

      iter #   5 total cpu time :     7.2 secs   av.it.:  11.0
      thresh= 4.785E-08 alpha_mix =  0.700 |ddv_scf|^2 =  8.407E-17

     End of electric fields calculation

          Dielectric constant in cartesian axis 

          (      13.312093793       0.000000000       0.000000000 )
          (       0.000000000      13.312093793       0.000000000 )
          (       0.000000000       0.000000000      13.312093793 )

          Effective charges (d Force / dE) in cartesian axis without acoustic sum rule applied (asr)

           atom      1   Si Mean Z*:       -0.00677
      Ex  (       -0.00677        0.00000        0.00000 )
      Ey  (        0.00000       -0.00677        0.00000 )
      Ez  (        0.00000       -0.00000       -0.00677 )
           atom      2   Si Mean Z*:       -0.00677
      Ex  (       -0.00677        0.00000       -0.00000 )
      Ey  (       -0.00000       -0.00677       -0.00000 )
      Ez  (       -0.00000       -0.00000       -0.00677 )

          Effective charges Sum: Mean:       -0.01354
             -0.01354        0.00000        0.00000
              0.00000       -0.01354       -0.00000
              0.00000       -0.00000       -0.01354

          Effective charges (d Force / dE) in cartesian axis with asr applied: 
           atom      1   Si Mean Z*:        0.00000
      E*x (        0.00000        0.00000        0.00000 )
      E*y (        0.00000        0.00000        0.00000 )
      E*z (        0.00000       -0.00000        0.00000 )
           atom      2   Si Mean Z*:       -0.00000
      E*x (       -0.00000       -0.00000       -0.00000 )
      E*y (       -0.00000       -0.00000       -0.00000 )
      E*z (       -0.00000        0.00000       -0.00000 )


     Representation #   1 modes #   1   2   3

     Self-consistent Calculation

      iter #   1 total cpu time :     8.2 secs   av.it.:   5.8
      thresh= 1.000E-02 alpha_mix =  0.700 |ddv_scf|^2 =  1.152E-08

      iter #   2 total cpu time :     9.4 secs   av.it.:  11.8
      thresh= 1.073E-05 alpha_mix =  0.700 |ddv_scf|^2 =  2.589E-10

      iter #   3 total cpu time :    10.5 secs   av.it.:  11.8
      thresh= 1.609E-06 alpha_mix =  0.700 |ddv_scf|^2 =  9.662E-12

      iter #   4 total cpu time :    11.7 secs   av.it.:  11.6
      thresh= 3.108E-07 alpha_mix =  0.700 |ddv_scf|^2 =  3.129E-14

      iter #   5 total cpu time :    12.8 secs   av.it.:  12.0
      thresh= 1.769E-08 alpha_mix =  0.700 |ddv_scf|^2 =  1.452E-16

     End of self-consistent calculation

     Convergence has been achieved 


     Representation #   2 modes #   4   5   6

     Self-consistent Calculation

      iter #   1 total cpu time :    13.7 secs   av.it.:   6.0
      thresh= 1.000E-02 alpha_mix =  0.700 |ddv_scf|^2 =  8.313E-09

      iter #   2 total cpu time :    14.9 secs   av.it.:  12.0
      thresh= 9.118E-06 alpha_mix =  0.700 |ddv_scf|^2 =  2.989E-10

      iter #   3 total cpu time :    16.0 secs   av.it.:  11.9
      thresh= 1.729E-06 alpha_mix =  0.700 |ddv_scf|^2 =  1.361E-11

      iter #   4 total cpu time :    17.2 secs   av.it.:  11.9
      thresh= 3.689E-07 alpha_mix =  0.700 |ddv_scf|^2 =  2.436E-14

      iter #   5 total cpu time :    18.3 secs   av.it.:  12.1
      thresh= 1.561E-08 alpha_mix =  0.700 |ddv_scf|^2 =  6.550E-17

     End of self-consistent calculation

     Convergence has been achieved 
 
     Number of q in the star =    1
     List of q in the star:
          1   0.000000000   0.000000000   0.000000000

          Dielectric constant in cartesian axis 

          (      13.312093793       0.000000000       0.000000000 )
          (       0.000000000      13.312093793       0.000000000 )
          (       0.000000000       0.000000000      13.312093793 )

          Effective charges (d Force / dE) in cartesian axis without acoustic sum rule applied (asr)

           atom      1   Si Mean Z*:       -0.00677
      Ex  (       -0.00677        0.00000        0.00000 )
      Ey  (        0.00000       -0.00677        0.00000 )
      Ez  (        0.00000       -0.00000       -0.00677 )
           atom      2   Si Mean Z*:       -0.00677
      Ex  (       -0.00677        0.00000       -0.00000 )
      Ey  (       -0.00000       -0.00677       -0.00000 )
      Ez  (       -0.00000       -0.00000       -0.00677 )

          Effective charges Sum: Mean:       -0.01354
             -0.01354        0.00000        0.00000
              0.00000       -0.01354       -0.00000
              0.00000       -0.00000       -0.01354

          Effective charges (d Force / dE) in cartesian axis with asr applied: 
           atom      1   Si Mean Z*:        0.00000
      E*x (        0.00000        0.00000        0.00000 )
      E*y (        0.00000        0.00000        0.00000 )
      E*z (        0.00000       -0.00000        0.00000 )
           atom      2   Si Mean Z*:       -0.00000
      E*x (       -0.00000       -0.00000       -0.00000 )
      E*y (       -0.00000       -0.00000       -0.00000 )
      E*z (       -0.00000        0.00000       -0.00000 )

          Effective charges (d P / du) in cartesian axis 

           atom      1   Si 
      Px  (       -0.00684       -0.00000        0.00000 )
      Py  (        0.00000       -0.00684        0.00000 )
      Pz  (        0.00000        0.00000       -0.00684 )
           atom      2   Si 
      Px  (       -0.00684        0.00000       -0.00000 )
      Py  (        0.00000       -0.00684       -0.00000 )
      Pz  (        0.00000       -0.00000       -0.00684 )

     Diagonalizing the dynamical matrix

     q = (    0.000000000   0.000000000   0.000000000 ) 

 **************************************************************************
     freq (    1) =      -0.114954 [THz] =      -3.834457 [cm-1]
     freq (    2) =      -0.114954 [THz] =      -3.834457 [cm-1]
     freq (    3) =      -0.114954 [THz] =      -3.834457 [cm-1]
     freq (    4) =      15.412102 [THz] =     514.092392 [cm-1]
     freq (    5) =      15.412102 [THz] =     514.092392 [cm-1]
     freq (    6) =      15.412102 [THz] =     514.092392 [cm-1]
 **************************************************************************

     Mode symmetry, O_h (m-3m)  point group:

     freq (   1-   3) =         -3.8  [cm-1]   --> T_1u G_15  G_4- I  
     freq (   4-   6) =        514.1  [cm-1]   --> T_2g G_25' G_5+ R  

     Calculation of q =   -0.1666667   0.1666667  -0.1666667

     Subspace diagonalization in iterative solution of the eigenvalue problem:
     a serial algorithm will be used

 
     Parallelization info
     --------------------
     sticks:   dense  smooth     PW     G-vecs:    dense   smooth      PW
     Min          62      62     19                 1303     1303     230
     Max          63      63     20                 1306     1306     232
     Sum        1003    1003    313                20875    20875    3695
 
     Using Slab Decomposition
 

     Title: 
     default                                                                    


     bravais-lattice index     =            2
     lattice parameter (alat)  =      10.1899  a.u.
     unit-cell volume          =     264.5151 (a.u.)^3
     number of atoms/cell      =            2
     number of atomic types    =            1
     number of electrons       =         8.00
     number of Kohn-Sham states=            4
     kinetic-energy cutoff     =      70.0000  Ry
     charge density cutoff     =     280.0000  Ry
     Exchange-correlation= PW
                           (   1   4   0   0   0   0   0)

     celldm(1)=  10.189905  celldm(2)=   0.000000  celldm(3)=   0.000000
     celldm(4)=   0.000000  celldm(5)=   0.000000  celldm(6)=   0.000000

     crystal axes: (cart. coord. in units of alat)
               a(1) = (  -0.500000   0.000000   0.500000 )  
               a(2) = (   0.000000   0.500000   0.500000 )  
               a(3) = (  -0.500000   0.500000   0.000000 )  

     reciprocal axes: (cart. coord. in units 2 pi/alat)
               b(1) = ( -1.000000 -1.000000  1.000000 )  
               b(2) = (  1.000000  1.000000  1.000000 )  
               b(3) = ( -1.000000  1.000000 -1.000000 )  


     PseudoPot. # 1 for Si read from file:
     ./pseudos/Si.nc.UPF
     MD5 check sum: 9e2d726316af3d4752eea8ab0afbb951
     Pseudo is Norm-conserving + core correction, Zval =  4.0
     Generated using ONCVPSP code by D. R. Hamann
     Using radial grid of 1510 points,  6 beta functions with: 
                l(1) =   0
                l(2) =   0
                l(3) =   1
                l(4) =   1
                l(5) =   2
                l(6) =   2

     atomic species   valence    mass     pseudopotential
        Si             4.00    28.08550     Si( 1.00)

     48 Sym. Ops., with inversion, found



   Cartesian axes

     site n.     atom                  positions (alat units)
         1           Si  tau(   1) = (   0.0000000   0.0000000   0.0000000  )
         2           Si  tau(   2) = (  -0.2500000   0.2500000   0.2500000  )

     number of k points=   364

     Number of k-points >= 100: set verbosity='high' to print them.

     Dense  grid:    20875 G-vectors     FFT dimensions: (  40,  40,  40)

     Estimated max dynamical RAM per process >       2.05 MB

     Estimated total dynamical RAM >      32.80 MB

     The potential is recalculated from file :
     /fastscratch/tsievers/QE_TMP_DIR/_ph0/silicon_ph_bench_nd_1_n_procs_16_3.save/charge-density

     Starting wfcs are    8 atomic wfcs

     Band Structure Calculation
     Davidson diagonalization with overlap

     ethr =  1.25E-10,  avg # of iterations = 12.9

     total cpu time spent up to now is        4.1 secs

     End of band structure calculation

     Number of k-points >= 100: set verbosity='high' to print the bands.

     highest occupied level (ev):     6.1106

     Writing config to output data dir /fastscratch/tsievers/QE_TMP_DIR/_ph0/silicon_ph_bench_nd_1_n_procs_16_3.save/

     default                                                                    

     bravais-lattice index     =            2
     lattice parameter (alat)  =      10.1899  a.u.
     unit-cell volume          =     264.5151 (a.u.)^3
     number of atoms/cell      =            2
     number of atomic types    =            1
     kinetic-energy cut-off    =      70.0000  Ry
     charge density cut-off    =     280.0000  Ry
     convergence threshold     =      1.0E-15
     beta                      =       0.7000
     number of iterations used =            4
     Exchange-correlation= PW
                           (   1   4   0   0   0   0   0)


     celldm(1)=   10.18990  celldm(2)=    0.00000  celldm(3)=    0.00000
     celldm(4)=    0.00000  celldm(5)=    0.00000  celldm(6)=    0.00000

     crystal axes: (cart. coord. in units of alat)
               a(1) = ( -0.5000  0.0000  0.5000 )  
               a(2) = (  0.0000  0.5000  0.5000 )  
               a(3) = ( -0.5000  0.5000  0.0000 )  

     reciprocal axes: (cart. coord. in units 2 pi/alat)
               b(1) = ( -1.0000 -1.0000  1.0000 )  
               b(2) = (  1.0000  1.0000  1.0000 )  
               b(3) = ( -1.0000  1.0000 -1.0000 )  


     Atoms inside the unit cell: 

     Cartesian axes

     site n.  atom      mass           positions (alat units)
        1     Si  28.0855   tau(    1) = (    0.00000    0.00000    0.00000  )
        2     Si  28.0855   tau(    2) = (   -0.25000    0.25000    0.25000  )

     Computing dynamical matrix for 
                    q = (  -0.1666667   0.1666667  -0.1666667 )
 
      6 Sym.Ops. (no q -> -q+G )


     G cutoff =  736.4420  (   1306 G-vectors)     FFT grid: ( 40, 40, 40)
     number of k points=   364

     PseudoPot. # 1 for Si read from file:
     ./pseudos/Si.nc.UPF
     MD5 check sum: 9e2d726316af3d4752eea8ab0afbb951
     Pseudo is Norm-conserving + core correction, Zval =  4.0
     Generated using ONCVPSP code by D. R. Hamann
     Using radial grid of 1510 points,  6 beta functions with: 
                l(1) =   0
                l(2) =   0
                l(3) =   1
                l(4) =   1
                l(5) =   2
                l(6) =   2

     Mode symmetry, C_3v (3m)   point group:


     Atomic displacements:
     There are    4 irreducible representations

     Representation     1      1 modes -  To be done

     Representation     2      1 modes -  To be done

     Representation     3      2 modes -  To be done

     Representation     4      2 modes -  To be done



     Alpha used in Ewald sum =   2.8000
     PHONON       :     19.78s CPU     23.96s WALL



     Representation #   1 mode #   1

     Self-consistent Calculation

      iter #   1 total cpu time :    25.2 secs   av.it.:   6.6
      thresh= 1.000E-02 alpha_mix =  0.700 |ddv_scf|^2 =  1.078E-03

      iter #   2 total cpu time :    26.7 secs   av.it.:   9.0
      thresh= 3.283E-03 alpha_mix =  0.700 |ddv_scf|^2 =  3.531E-02

      iter #   3 total cpu time :    28.0 secs   av.it.:   7.6
      thresh= 1.000E-02 alpha_mix =  0.700 |ddv_scf|^2 =  2.879E-07

      iter #   4 total cpu time :    29.5 secs   av.it.:   9.2
      thresh= 5.365E-05 alpha_mix =  0.700 |ddv_scf|^2 =  9.418E-09

      iter #   5 total cpu time :    31.1 secs   av.it.:   9.6
      thresh= 9.705E-06 alpha_mix =  0.700 |ddv_scf|^2 =  4.257E-10

      iter #   6 total cpu time :    32.6 secs   av.it.:   8.8
      thresh= 2.063E-06 alpha_mix =  0.700 |ddv_scf|^2 =  1.176E-09

      iter #   7 total cpu time :    33.9 secs   av.it.:   7.9
      thresh= 3.429E-06 alpha_mix =  0.700 |ddv_scf|^2 =  6.674E-11

      iter #   8 total cpu time :    35.5 secs   av.it.:   8.5
      thresh= 8.169E-07 alpha_mix =  0.700 |ddv_scf|^2 =  5.096E-13

      iter #   9 total cpu time :    37.0 secs   av.it.:   8.3
      thresh= 7.139E-08 alpha_mix =  0.700 |ddv_scf|^2 =  1.168E-14

      iter #  10 total cpu time :    38.4 secs   av.it.:   8.6
      thresh= 1.081E-08 alpha_mix =  0.700 |ddv_scf|^2 =  1.121E-15

      iter #  11 total cpu time :    39.9 secs   av.it.:   9.1
      thresh= 3.348E-09 alpha_mix =  0.700 |ddv_scf|^2 =  8.717E-17

     End of self-consistent calculation

     Convergence has been achieved 


     Representation #   2 mode #   2

     Self-consistent Calculation

      iter #   1 total cpu time :    41.5 secs   av.it.:   6.6
      thresh= 1.000E-02 alpha_mix =  0.700 |ddv_scf|^2 =  1.078E-03

      iter #   2 total cpu time :    43.0 secs   av.it.:   9.0
      thresh= 3.283E-03 alpha_mix =  0.700 |ddv_scf|^2 =  3.531E-02

      iter #   3 total cpu time :    44.4 secs   av.it.:   7.6
      thresh= 1.000E-02 alpha_mix =  0.700 |ddv_scf|^2 =  2.879E-07

      iter #   4 total cpu time :    45.9 secs   av.it.:   9.2
      thresh= 5.365E-05 alpha_mix =  0.700 |ddv_scf|^2 =  9.418E-09

      iter #   5 total cpu time :    47.5 secs   av.it.:   9.6
      thresh= 9.705E-06 alpha_mix =  0.700 |ddv_scf|^2 =  4.257E-10

      iter #   6 total cpu time :    48.9 secs   av.it.:   8.8
      thresh= 2.063E-06 alpha_mix =  0.700 |ddv_scf|^2 =  1.176E-09

      iter #   7 total cpu time :    50.3 secs   av.it.:   7.9
      thresh= 3.429E-06 alpha_mix =  0.700 |ddv_scf|^2 =  6.674E-11

      iter #   8 total cpu time :    51.8 secs   av.it.:   8.5
      thresh= 8.169E-07 alpha_mix =  0.700 |ddv_scf|^2 =  5.096E-13

      iter #   9 total cpu time :    53.3 secs   av.it.:   8.3
      thresh= 7.139E-08 alpha_mix =  0.700 |ddv_scf|^2 =  1.168E-14

      iter #  10 total cpu time :    54.8 secs   av.it.:   8.7
      thresh= 1.081E-08 alpha_mix =  0.700 |ddv_scf|^2 =  1.121E-15

      iter #  11 total cpu time :    57.0 secs   av.it.:   9.1
      thresh= 3.348E-09 alpha_mix =  0.700 |ddv_scf|^2 =  8.715E-17

     End of self-consistent calculation

     Convergence has been achieved 


     Representation #   3 modes #   3   4

     Self-consistent Calculation

      iter #   1 total cpu time :    59.4 secs   av.it.:   6.1
      thresh= 1.000E-02 alpha_mix =  0.700 |ddv_scf|^2 =  2.811E-08

      iter #   2 total cpu time :    63.0 secs   av.it.:  11.5
      thresh= 1.677E-05 alpha_mix =  0.700 |ddv_scf|^2 =  1.251E-09

      iter #   3 total cpu time :    66.5 secs   av.it.:  11.4
      thresh= 3.537E-06 alpha_mix =  0.700 |ddv_scf|^2 =  3.267E-11

      iter #   4 total cpu time :    70.1 secs   av.it.:  11.5
      thresh= 5.715E-07 alpha_mix =  0.700 |ddv_scf|^2 =  3.768E-13

      iter #   5 total cpu time :    73.7 secs   av.it.:  11.5
      thresh= 6.139E-08 alpha_mix =  0.700 |ddv_scf|^2 =  7.997E-15

      iter #   6 total cpu time :    77.2 secs   av.it.:  11.8
      thresh= 8.943E-09 alpha_mix =  0.700 |ddv_scf|^2 =  3.631E-17

     End of self-consistent calculation

     Convergence has been achieved 


     Representation #   4 modes #   5   6

     Self-consistent Calculation

      iter #   1 total cpu time :    79.7 secs   av.it.:   6.0
      thresh= 1.000E-02 alpha_mix =  0.700 |ddv_scf|^2 =  2.811E-08

      iter #   2 total cpu time :    83.3 secs   av.it.:  11.5
      thresh= 1.677E-05 alpha_mix =  0.700 |ddv_scf|^2 =  1.251E-09

      iter #   3 total cpu time :    88.7 secs   av.it.:  11.4
      thresh= 3.537E-06 alpha_mix =  0.700 |ddv_scf|^2 =  3.267E-11

      iter #   4 total cpu time :    92.3 secs   av.it.:  11.5
      thresh= 5.715E-07 alpha_mix =  0.700 |ddv_scf|^2 =  3.770E-13

      iter #   5 total cpu time :    95.8 secs   av.it.:  11.4
      thresh= 6.140E-08 alpha_mix =  0.700 |ddv_scf|^2 =  8.009E-15

      iter #   6 total cpu time :    99.4 secs   av.it.:  11.8
      thresh= 8.949E-09 alpha_mix =  0.700 |ddv_scf|^2 =  3.628E-17

     End of self-consistent calculation

     Convergence has been achieved 
 
     Number of q in the star =    8
     List of q in the star:
          1  -0.166666667   0.166666667  -0.166666667
          2   0.166666667   0.166666667   0.166666667
          3  -0.166666667  -0.166666667  -0.166666667
          4   0.166666667  -0.166666667   0.166666667
          5   0.166666667  -0.166666667  -0.166666667
          6   0.166666667   0.166666667  -0.166666667
          7  -0.166666667  -0.166666667   0.166666667
          8  -0.166666667   0.166666667   0.166666667

     Diagonalizing the dynamical matrix

     q = (   -0.166666667   0.166666667  -0.166666667 ) 

 **************************************************************************
     freq (    1) =       2.202732 [THz] =      73.475246 [cm-1]
     freq (    2) =       2.202732 [THz] =      73.475246 [cm-1]
     freq (    3) =       4.747930 [THz] =     158.373892 [cm-1]
     freq (    4) =      15.023887 [THz] =     501.142911 [cm-1]
     freq (    5) =      15.065886 [THz] =     502.543876 [cm-1]
     freq (    6) =      15.065886 [THz] =     502.543876 [cm-1]
 **************************************************************************

     Mode symmetry, C_3v (3m)   point group:

     freq (   1-   2) =         73.5  [cm-1]   --> E    L_3           
     freq (   3-   3) =        158.4  [cm-1]   --> A_1  L_1           
     freq (   4-   4) =        501.1  [cm-1]   --> A_1  L_1           
     freq (   5-   6) =        502.5  [cm-1]   --> E    L_3           

     Calculation of q =   -0.3333333   0.3333333  -0.3333333
 
     Parallelization info
     --------------------
     sticks:   dense  smooth     PW     G-vecs:    dense   smooth      PW
     Min          62      62     19                 1303     1303     237
     Max          63      63     20                 1306     1306     242
     Sum        1003    1003    313                20875    20875    3839
 
     Using Slab Decomposition
 

     Title: 
     default                                                                    


     bravais-lattice index     =            2
     lattice parameter (alat)  =      10.1899  a.u.
     unit-cell volume          =     264.5151 (a.u.)^3
     number of atoms/cell      =            2
     number of atomic types    =            1
     number of electrons       =         8.00
     number of Kohn-Sham states=            4
     kinetic-energy cutoff     =      70.0000  Ry
     charge density cutoff     =     280.0000  Ry
     Exchange-correlation= PW
                           (   1   4   0   0   0   0   0)

     celldm(1)=  10.189905  celldm(2)=   0.000000  celldm(3)=   0.000000
     celldm(4)=   0.000000  celldm(5)=   0.000000  celldm(6)=   0.000000

     crystal axes: (cart. coord. in units of alat)
               a(1) = (  -0.500000   0.000000   0.500000 )  
               a(2) = (   0.000000   0.500000   0.500000 )  
               a(3) = (  -0.500000   0.500000   0.000000 )  

     reciprocal axes: (cart. coord. in units 2 pi/alat)
               b(1) = ( -1.000000 -1.000000  1.000000 )  
               b(2) = (  1.000000  1.000000  1.000000 )  
               b(3) = ( -1.000000  1.000000 -1.000000 )  


     PseudoPot. # 1 for Si read from file:
     ./pseudos/Si.nc.UPF
     MD5 check sum: 9e2d726316af3d4752eea8ab0afbb951
     Pseudo is Norm-conserving + core correction, Zval =  4.0
     Generated using ONCVPSP code by D. R. Hamann
     Using radial grid of 1510 points,  6 beta functions with: 
                l(1) =   0
                l(2) =   0
                l(3) =   1
                l(4) =   1
                l(5) =   2
                l(6) =   2

     atomic species   valence    mass     pseudopotential
        Si             4.00    28.08550     Si( 1.00)

     48 Sym. Ops., with inversion, found



   Cartesian axes

     site n.     atom                  positions (alat units)
         1           Si  tau(   1) = (   0.0000000   0.0000000   0.0000000  )
         2           Si  tau(   2) = (  -0.2500000   0.2500000   0.2500000  )

     number of k points=   364

     Number of k-points >= 100: set verbosity='high' to print them.

     Dense  grid:    20875 G-vectors     FFT dimensions: (  40,  40,  40)

     Estimated max dynamical RAM per process >       2.06 MB

     Estimated total dynamical RAM >      33.01 MB

     The potential is recalculated from file :
     /fastscratch/tsievers/QE_TMP_DIR/_ph0/silicon_ph_bench_nd_1_n_procs_16_3.save/charge-density

     Starting wfcs are    8 atomic wfcs

     Band Structure Calculation
     Davidson diagonalization with overlap

     ethr =  1.25E-10,  avg # of iterations = 12.9

     total cpu time spent up to now is        8.9 secs

     End of band structure calculation

     Number of k-points >= 100: set verbosity='high' to print the bands.

     highest occupied level (ev):     6.1106

     Writing config to output data dir /fastscratch/tsievers/QE_TMP_DIR/_ph0/silicon_ph_bench_nd_1_n_procs_16_3.save/

     default                                                                    

     bravais-lattice index     =            2
     lattice parameter (alat)  =      10.1899  a.u.
     unit-cell volume          =     264.5151 (a.u.)^3
     number of atoms/cell      =            2
     number of atomic types    =            1
     kinetic-energy cut-off    =      70.0000  Ry
     charge density cut-off    =     280.0000  Ry
     convergence threshold     =      1.0E-15
     beta                      =       0.7000
     number of iterations used =            4
     Exchange-correlation= PW
                           (   1   4   0   0   0   0   0)


     celldm(1)=   10.18990  celldm(2)=    0.00000  celldm(3)=    0.00000
     celldm(4)=    0.00000  celldm(5)=    0.00000  celldm(6)=    0.00000

     crystal axes: (cart. coord. in units of alat)
               a(1) = ( -0.5000  0.0000  0.5000 )  
               a(2) = (  0.0000  0.5000  0.5000 )  
               a(3) = ( -0.5000  0.5000  0.0000 )  

     reciprocal axes: (cart. coord. in units 2 pi/alat)
               b(1) = ( -1.0000 -1.0000  1.0000 )  
               b(2) = (  1.0000  1.0000  1.0000 )  
               b(3) = ( -1.0000  1.0000 -1.0000 )  


     Atoms inside the unit cell: 

     Cartesian axes

     site n.  atom      mass           positions (alat units)
        1     Si  28.0855   tau(    1) = (    0.00000    0.00000    0.00000  )
        2     Si  28.0855   tau(    2) = (   -0.25000    0.25000    0.25000  )

     Computing dynamical matrix for 
                    q = (  -0.3333333   0.3333333  -0.3333333 )
 
      6 Sym.Ops. (no q -> -q+G )


     G cutoff =  736.4420  (   1306 G-vectors)     FFT grid: ( 40, 40, 40)
     number of k points=   364

     PseudoPot. # 1 for Si read from file:
     ./pseudos/Si.nc.UPF
     MD5 check sum: 9e2d726316af3d4752eea8ab0afbb951
     Pseudo is Norm-conserving + core correction, Zval =  4.0
     Generated using ONCVPSP code by D. R. Hamann
     Using radial grid of 1510 points,  6 beta functions with: 
                l(1) =   0
                l(2) =   0
                l(3) =   1
                l(4) =   1
                l(5) =   2
                l(6) =   2

     Mode symmetry, C_3v (3m)   point group:


     Atomic displacements:
     There are    4 irreducible representations

     Representation     1      1 modes -  To be done

     Representation     2      1 modes -  To be done

     Representation     3      2 modes -  To be done

     Representation     4      2 modes -  To be done



     Alpha used in Ewald sum =   2.8000
     PHONON       :   1m32.42s CPU   1m45.91s WALL



     Representation #   1 mode #   1

     Self-consistent Calculation

      iter #   1 total cpu time :   107.1 secs   av.it.:   6.5
      thresh= 1.000E-02 alpha_mix =  0.700 |ddv_scf|^2 =  6.824E-05

      iter #   2 total cpu time :   108.7 secs   av.it.:   9.9
      thresh= 8.261E-04 alpha_mix =  0.700 |ddv_scf|^2 =  5.446E-04

      iter #   3 total cpu time :   110.1 secs   av.it.:   8.4
      thresh= 2.334E-03 alpha_mix =  0.700 |ddv_scf|^2 =  1.003E-07

      iter #   4 total cpu time :   111.7 secs   av.it.:  10.0
      thresh= 3.167E-05 alpha_mix =  0.700 |ddv_scf|^2 =  2.037E-09

      iter #   5 total cpu time :   113.4 secs   av.it.:  10.0
      thresh= 4.513E-06 alpha_mix =  0.700 |ddv_scf|^2 =  2.148E-11

      iter #   6 total cpu time :   115.0 secs   av.it.:  10.5
      thresh= 4.634E-07 alpha_mix =  0.700 |ddv_scf|^2 =  1.832E-12

      iter #   7 total cpu time :   116.7 secs   av.it.:  10.5
      thresh= 1.354E-07 alpha_mix =  0.700 |ddv_scf|^2 =  1.807E-13

      iter #   8 total cpu time :   118.4 secs   av.it.:  10.1
      thresh= 4.251E-08 alpha_mix =  0.700 |ddv_scf|^2 =  8.607E-13

      iter #   9 total cpu time :   120.0 secs   av.it.:   8.9
      thresh= 9.277E-08 alpha_mix =  0.700 |ddv_scf|^2 =  2.030E-14

      iter #  10 total cpu time :   121.5 secs   av.it.:   8.9
      thresh= 1.425E-08 alpha_mix =  0.700 |ddv_scf|^2 =  1.597E-16

     End of self-consistent calculation

     Convergence has been achieved 


     Representation #   2 mode #   2

     Self-consistent Calculation

      iter #   1 total cpu time :   123.1 secs   av.it.:   6.5
      thresh= 1.000E-02 alpha_mix =  0.700 |ddv_scf|^2 =  6.824E-05

      iter #   2 total cpu time :   124.7 secs   av.it.:   9.9
      thresh= 8.261E-04 alpha_mix =  0.700 |ddv_scf|^2 =  5.446E-04

      iter #   3 total cpu time :   126.1 secs   av.it.:   8.4
      thresh= 2.334E-03 alpha_mix =  0.700 |ddv_scf|^2 =  1.003E-07

      iter #   4 total cpu time :   127.7 secs   av.it.:  10.0
      thresh= 3.167E-05 alpha_mix =  0.700 |ddv_scf|^2 =  2.037E-09

      iter #   5 total cpu time :   129.3 secs   av.it.:  10.0
      thresh= 4.513E-06 alpha_mix =  0.700 |ddv_scf|^2 =  2.148E-11

      iter #   6 total cpu time :   131.0 secs   av.it.:  10.5
      thresh= 4.634E-07 alpha_mix =  0.700 |ddv_scf|^2 =  1.832E-12

      iter #   7 total cpu time :   132.7 secs   av.it.:  10.5
      thresh= 1.353E-07 alpha_mix =  0.700 |ddv_scf|^2 =  1.802E-13

      iter #   8 total cpu time :   134.4 secs   av.it.:  10.1
      thresh= 4.245E-08 alpha_mix =  0.700 |ddv_scf|^2 =  8.594E-13

      iter #   9 total cpu time :   136.0 secs   av.it.:   8.9
      thresh= 9.270E-08 alpha_mix =  0.700 |ddv_scf|^2 =  2.019E-14

      iter #  10 total cpu time :   137.4 secs   av.it.:   8.9
      thresh= 1.421E-08 alpha_mix =  0.700 |ddv_scf|^2 =  1.601E-16

     End of self-consistent calculation

     Convergence has been achieved 


     Representation #   3 modes #   3   4

     Self-consistent Calculation

      iter #   1 total cpu time :   141.2 secs   av.it.:   6.1
      thresh= 1.000E-02 alpha_mix =  0.700 |ddv_scf|^2 =  3.829E-08

      iter #   2 total cpu time :   144.8 secs   av.it.:  11.5
      thresh= 1.957E-05 alpha_mix =  0.700 |ddv_scf|^2 =  2.652E-09

      iter #   3 total cpu time :   148.3 secs   av.it.:  11.4
      thresh= 5.150E-06 alpha_mix =  0.700 |ddv_scf|^2 =  3.840E-11

      iter #   4 total cpu time :   151.9 secs   av.it.:  11.5
      thresh= 6.197E-07 alpha_mix =  0.700 |ddv_scf|^2 =  3.851E-13

      iter #   5 total cpu time :   155.4 secs   av.it.:  11.5
      thresh= 6.206E-08 alpha_mix =  0.700 |ddv_scf|^2 =  7.496E-15

      iter #   6 total cpu time :   159.0 secs   av.it.:  11.7
      thresh= 8.658E-09 alpha_mix =  0.700 |ddv_scf|^2 =  5.109E-17

     End of self-consistent calculation

     Convergence has been achieved 


     Representation #   4 modes #   5   6

     Self-consistent Calculation

      iter #   1 total cpu time :   161.5 secs   av.it.:   6.0
      thresh= 1.000E-02 alpha_mix =  0.700 |ddv_scf|^2 =  3.830E-08

      iter #   2 total cpu time :   165.1 secs   av.it.:  11.5
      thresh= 1.957E-05 alpha_mix =  0.700 |ddv_scf|^2 =  2.655E-09

      iter #   3 total cpu time :   170.7 secs   av.it.:  11.3
      thresh= 5.153E-06 alpha_mix =  0.700 |ddv_scf|^2 =  3.839E-11

      iter #   4 total cpu time :   174.3 secs   av.it.:  11.5
      thresh= 6.196E-07 alpha_mix =  0.700 |ddv_scf|^2 =  3.851E-13

      iter #   5 total cpu time :   177.8 secs   av.it.:  11.5
      thresh= 6.206E-08 alpha_mix =  0.700 |ddv_scf|^2 =  7.491E-15

      iter #   6 total cpu time :   181.4 secs   av.it.:  11.7
      thresh= 8.655E-09 alpha_mix =  0.700 |ddv_scf|^2 =  5.102E-17

     End of self-consistent calculation

     Convergence has been achieved 
 
     Number of q in the star =    8
     List of q in the star:
          1  -0.333333333   0.333333333  -0.333333333
          2   0.333333333   0.333333333   0.333333333
          3  -0.333333333  -0.333333333  -0.333333333
          4   0.333333333  -0.333333333   0.333333333
          5   0.333333333  -0.333333333  -0.333333333
          6   0.333333333   0.333333333  -0.333333333
          7  -0.333333333  -0.333333333   0.333333333
          8  -0.333333333   0.333333333   0.333333333

     Diagonalizing the dynamical matrix

     q = (   -0.333333333   0.333333333  -0.333333333 ) 

 **************************************************************************
     freq (    1) =       3.044091 [THz] =     101.539947 [cm-1]
     freq (    2) =       3.044091 [THz] =     101.539947 [cm-1]
     freq (    3) =       8.747769 [THz] =     291.794153 [cm-1]
     freq (    4) =      13.857227 [THz] =     462.227325 [cm-1]
     freq (    5) =      14.763297 [THz] =     492.450570 [cm-1]
     freq (    6) =      14.763297 [THz] =     492.450570 [cm-1]
 **************************************************************************

     Mode symmetry, C_3v (3m)   point group:

     freq (   1-   2) =        101.5  [cm-1]   --> E    L_3           
     freq (   3-   3) =        291.8  [cm-1]   --> A_1  L_1           
     freq (   4-   4) =        462.2  [cm-1]   --> A_1  L_1           
     freq (   5-   6) =        492.5  [cm-1]   --> E    L_3           

     Calculation of q =    0.5000000  -0.5000000   0.5000000
 
     Parallelization info
     --------------------
     sticks:   dense  smooth     PW     G-vecs:    dense   smooth      PW
     Min          62      62     20                 1303     1303     250
     Max          63      63     22                 1306     1306     252
     Sum        1003    1003    337                20875    20875    4015
 
     Using Slab Decomposition
 

     Title: 
     default                                                                    


     bravais-lattice index     =            2
     lattice parameter (alat)  =      10.1899  a.u.
     unit-cell volume          =     264.5151 (a.u.)^3
     number of atoms/cell      =            2
     number of atomic types    =            1
     number of electrons       =         8.00
     number of Kohn-Sham states=            4
     kinetic-energy cutoff     =      70.0000  Ry
     charge density cutoff     =     280.0000  Ry
     Exchange-correlation= PW
                           (   1   4   0   0   0   0   0)

     celldm(1)=  10.189905  celldm(2)=   0.000000  celldm(3)=   0.000000
     celldm(4)=   0.000000  celldm(5)=   0.000000  celldm(6)=   0.000000

     crystal axes: (cart. coord. in units of alat)
               a(1) = (  -0.500000   0.000000   0.500000 )  
               a(2) = (   0.000000   0.500000   0.500000 )  
               a(3) = (  -0.500000   0.500000   0.000000 )  

     reciprocal axes: (cart. coord. in units 2 pi/alat)
               b(1) = ( -1.000000 -1.000000  1.000000 )  
               b(2) = (  1.000000  1.000000  1.000000 )  
               b(3) = ( -1.000000  1.000000 -1.000000 )  


     PseudoPot. # 1 for Si read from file:
     ./pseudos/Si.nc.UPF
     MD5 check sum: 9e2d726316af3d4752eea8ab0afbb951
     Pseudo is Norm-conserving + core correction, Zval =  4.0
     Generated using ONCVPSP code by D. R. Hamann
     Using radial grid of 1510 points,  6 beta functions with: 
                l(1) =   0
                l(2) =   0
                l(3) =   1
                l(4) =   1
                l(5) =   2
                l(6) =   2

     atomic species   valence    mass     pseudopotential
        Si             4.00    28.08550     Si( 1.00)

     48 Sym. Ops., with inversion, found



   Cartesian axes

     site n.     atom                  positions (alat units)
         1           Si  tau(   1) = (   0.0000000   0.0000000   0.0000000  )
         2           Si  tau(   2) = (  -0.2500000   0.2500000   0.2500000  )

     number of k points=   182

     Number of k-points >= 100: set verbosity='high' to print them.

     Dense  grid:    20875 G-vectors     FFT dimensions: (  40,  40,  40)

     Estimated max dynamical RAM per process >       2.08 MB

     Estimated total dynamical RAM >      33.25 MB

     The potential is recalculated from file :
     /fastscratch/tsievers/QE_TMP_DIR/_ph0/silicon_ph_bench_nd_1_n_procs_16_3.save/charge-density

     Starting wfcs are    8 atomic wfcs

     Band Structure Calculation
     Davidson diagonalization with overlap

     ethr =  1.25E-10,  avg # of iterations = 12.9

     total cpu time spent up to now is       11.6 secs

     End of band structure calculation

     Number of k-points >= 100: set verbosity='high' to print the bands.

     highest occupied level (ev):     6.1106

     Writing config to output data dir /fastscratch/tsievers/QE_TMP_DIR/_ph0/silicon_ph_bench_nd_1_n_procs_16_3.save/

     default                                                                    

     bravais-lattice index     =            2
     lattice parameter (alat)  =      10.1899  a.u.
     unit-cell volume          =     264.5151 (a.u.)^3
     number of atoms/cell      =            2
     number of atomic types    =            1
     kinetic-energy cut-off    =      70.0000  Ry
     charge density cut-off    =     280.0000  Ry
     convergence threshold     =      1.0E-15
     beta                      =       0.7000
     number of iterations used =            4
     Exchange-correlation= PW
                           (   1   4   0   0   0   0   0)


     celldm(1)=   10.18990  celldm(2)=    0.00000  celldm(3)=    0.00000
     celldm(4)=    0.00000  celldm(5)=    0.00000  celldm(6)=    0.00000

     crystal axes: (cart. coord. in units of alat)
               a(1) = ( -0.5000  0.0000  0.5000 )  
               a(2) = (  0.0000  0.5000  0.5000 )  
               a(3) = ( -0.5000  0.5000  0.0000 )  

     reciprocal axes: (cart. coord. in units 2 pi/alat)
               b(1) = ( -1.0000 -1.0000  1.0000 )  
               b(2) = (  1.0000  1.0000  1.0000 )  
               b(3) = ( -1.0000  1.0000 -1.0000 )  


     Atoms inside the unit cell: 

     Cartesian axes

     site n.  atom      mass           positions (alat units)
        1     Si  28.0855   tau(    1) = (    0.00000    0.00000    0.00000  )
        2     Si  28.0855   tau(    2) = (   -0.25000    0.25000    0.25000  )

     Computing dynamical matrix for 
                    q = (   0.5000000  -0.5000000   0.5000000 )
 
     13 Sym.Ops. (with q -> -q+G )


     G cutoff =  736.4420  (   1306 G-vectors)     FFT grid: ( 40, 40, 40)
     number of k points=   182

     PseudoPot. # 1 for Si read from file:
     ./pseudos/Si.nc.UPF
     MD5 check sum: 9e2d726316af3d4752eea8ab0afbb951
     Pseudo is Norm-conserving + core correction, Zval =  4.0
     Generated using ONCVPSP code by D. R. Hamann
     Using radial grid of 1510 points,  6 beta functions with: 
                l(1) =   0
                l(2) =   0
                l(3) =   1
                l(4) =   1
                l(5) =   2
                l(6) =   2


     Atomic displacements:
     There are    4 irreducible representations

     Representation     1      1 modes -  To be done

     Representation     2      1 modes -  To be done

     Representation     3      2 modes -  To be done

     Representation     4      2 modes -  To be done



     Alpha used in Ewald sum =   2.8000
     PHONON       :   2m42.41s CPU   3m 4.83s WALL



     Representation #   1 mode #   1

     Self-consistent Calculation

      iter #   1 total cpu time :   185.4 secs   av.it.:   5.8
      thresh= 1.000E-02 alpha_mix =  0.700 |ddv_scf|^2 =  2.183E-06

      iter #   2 total cpu time :   186.3 secs   av.it.:  10.1
      thresh= 1.478E-04 alpha_mix =  0.700 |ddv_scf|^2 =  2.014E-06

      iter #   3 total cpu time :   187.1 secs   av.it.:   9.4
      thresh= 1.419E-04 alpha_mix =  0.700 |ddv_scf|^2 =  2.696E-10

      iter #   4 total cpu time :   188.0 secs   av.it.:  10.2
      thresh= 1.642E-06 alpha_mix =  0.700 |ddv_scf|^2 =  4.650E-12

      iter #   5 total cpu time :   189.2 secs   av.it.:   9.9
      thresh= 2.156E-07 alpha_mix =  0.700 |ddv_scf|^2 =  6.624E-14

      iter #   6 total cpu time :   190.1 secs   av.it.:  10.0
      thresh= 2.574E-08 alpha_mix =  0.700 |ddv_scf|^2 =  8.672E-16

     End of self-consistent calculation

     Convergence has been achieved 


     Representation #   2 mode #   2

     Self-consistent Calculation

      iter #   1 total cpu time :   190.8 secs   av.it.:   6.7
      thresh= 1.000E-02 alpha_mix =  0.700 |ddv_scf|^2 =  3.335E-05

      iter #   2 total cpu time :   191.7 secs   av.it.:  10.2
      thresh= 5.775E-04 alpha_mix =  0.700 |ddv_scf|^2 =  1.090E-04

      iter #   3 total cpu time :   192.5 secs   av.it.:   9.2
      thresh= 1.044E-03 alpha_mix =  0.700 |ddv_scf|^2 =  6.446E-09

      iter #   4 total cpu time :   193.4 secs   av.it.:   9.9
      thresh= 8.029E-06 alpha_mix =  0.700 |ddv_scf|^2 =  1.352E-10

      iter #   5 total cpu time :   194.3 secs   av.it.:  10.5
      thresh= 1.163E-06 alpha_mix =  0.700 |ddv_scf|^2 =  6.724E-12

      iter #   6 total cpu time :   195.1 secs   av.it.:  10.2
      thresh= 2.593E-07 alpha_mix =  0.700 |ddv_scf|^2 =  1.882E-13

      iter #   7 total cpu time :   195.9 secs   av.it.:   9.5
      thresh= 4.339E-08 alpha_mix =  0.700 |ddv_scf|^2 =  4.035E-17

     End of self-consistent calculation

     Convergence has been achieved 


     Representation #   3 modes #   3   4

     Self-consistent Calculation

      iter #   1 total cpu time :   197.2 secs   av.it.:   6.1
      thresh= 1.000E-02 alpha_mix =  0.700 |ddv_scf|^2 =  7.707E-08

      iter #   2 total cpu time :   200.5 secs   av.it.:  11.4
      thresh= 2.776E-05 alpha_mix =  0.700 |ddv_scf|^2 =  6.533E-09

      iter #   3 total cpu time :   202.3 secs   av.it.:  11.2
      thresh= 8.083E-06 alpha_mix =  0.700 |ddv_scf|^2 =  4.374E-11

      iter #   4 total cpu time :   205.4 secs   av.it.:  11.3
      thresh= 6.614E-07 alpha_mix =  0.700 |ddv_scf|^2 =  4.892E-14

      iter #   5 total cpu time :   207.8 secs   av.it.:  11.5
      thresh= 2.212E-08 alpha_mix =  0.700 |ddv_scf|^2 =  6.434E-16

     End of self-consistent calculation

     Convergence has been achieved 


     Representation #   4 modes #   5   6

     Self-consistent Calculation

      iter #   1 total cpu time :   210.0 secs   av.it.:   5.5
      thresh= 1.000E-02 alpha_mix =  0.700 |ddv_scf|^2 =  8.746E-09

      iter #   2 total cpu time :   213.0 secs   av.it.:  11.4
      thresh= 9.352E-06 alpha_mix =  0.700 |ddv_scf|^2 =  2.292E-10

      iter #   3 total cpu time :   214.9 secs   av.it.:  11.4
      thresh= 1.514E-06 alpha_mix =  0.700 |ddv_scf|^2 =  1.409E-11

      iter #   4 total cpu time :   216.7 secs   av.it.:  11.4
      thresh= 3.754E-07 alpha_mix =  0.700 |ddv_scf|^2 =  6.033E-14

      iter #   5 total cpu time :   219.3 secs   av.it.:  11.3
      thresh= 2.456E-08 alpha_mix =  0.700 |ddv_scf|^2 =  9.637E-16

     End of self-consistent calculation

     Convergence has been achieved 
 
     Number of q in the star =    4
     List of q in the star:
          1   0.500000000  -0.500000000   0.500000000
          2   0.500000000   0.500000000   0.500000000
          3  -0.500000000   0.500000000   0.500000000
          4   0.500000000   0.500000000  -0.500000000

     Diagonalizing the dynamical matrix

     q = (    0.500000000  -0.500000000   0.500000000 ) 

 **************************************************************************
     freq (    1) =       3.157174 [THz] =     105.311983 [cm-1]
     freq (    2) =       3.157174 [THz] =     105.311983 [cm-1]
     freq (    3) =      11.169084 [THz] =     372.560547 [cm-1]
     freq (    4) =      12.390665 [THz] =     413.308090 [cm-1]
     freq (    5) =      14.704259 [THz] =     490.481291 [cm-1]
     freq (    6) =      14.704259 [THz] =     490.481291 [cm-1]
 **************************************************************************

     Calculation of q =    0.0000000   0.3333333   0.0000000
 
     Parallelization info
     --------------------
     sticks:   dense  smooth     PW     G-vecs:    dense   smooth      PW
     Min          62      62     19                 1303     1303     231
     Max          63      63     20                 1306     1306     234
     Sum        1003    1003    313                20875    20875    3719
 
     Using Slab Decomposition
 

     Title: 
     default                                                                    


     bravais-lattice index     =            2
     lattice parameter (alat)  =      10.1899  a.u.
     unit-cell volume          =     264.5151 (a.u.)^3
     number of atoms/cell      =            2
     number of atomic types    =            1
     number of electrons       =         8.00
     number of Kohn-Sham states=            4
     kinetic-energy cutoff     =      70.0000  Ry
     charge density cutoff     =     280.0000  Ry
     Exchange-correlation= PW
                           (   1   4   0   0   0   0   0)

     celldm(1)=  10.189905  celldm(2)=   0.000000  celldm(3)=   0.000000
     celldm(4)=   0.000000  celldm(5)=   0.000000  celldm(6)=   0.000000

     crystal axes: (cart. coord. in units of alat)
               a(1) = (  -0.500000   0.000000   0.500000 )  
               a(2) = (   0.000000   0.500000   0.500000 )  
               a(3) = (  -0.500000   0.500000   0.000000 )  

     reciprocal axes: (cart. coord. in units 2 pi/alat)
               b(1) = ( -1.000000 -1.000000  1.000000 )  
               b(2) = (  1.000000  1.000000  1.000000 )  
               b(3) = ( -1.000000  1.000000 -1.000000 )  


     PseudoPot. # 1 for Si read from file:
     ./pseudos/Si.nc.UPF
     MD5 check sum: 9e2d726316af3d4752eea8ab0afbb951
     Pseudo is Norm-conserving + core correction, Zval =  4.0
     Generated using ONCVPSP code by D. R. Hamann
     Using radial grid of 1510 points,  6 beta functions with: 
                l(1) =   0
                l(2) =   0
                l(3) =   1
                l(4) =   1
                l(5) =   2
                l(6) =   2

     atomic species   valence    mass     pseudopotential
        Si             4.00    28.08550     Si( 1.00)

     48 Sym. Ops., with inversion, found



   Cartesian axes

     site n.     atom                  positions (alat units)
         1           Si  tau(   1) = (   0.0000000   0.0000000   0.0000000  )
         2           Si  tau(   2) = (  -0.2500000   0.2500000   0.2500000  )

     number of k points=   252

     Number of k-points >= 100: set verbosity='high' to print them.

     Dense  grid:    20875 G-vectors     FFT dimensions: (  40,  40,  40)

     Estimated max dynamical RAM per process >       2.05 MB

     Estimated total dynamical RAM >      32.82 MB

     The potential is recalculated from file :
     /fastscratch/tsievers/QE_TMP_DIR/_ph0/silicon_ph_bench_nd_1_n_procs_16_3.save/charge-density

     Starting wfcs are    8 atomic wfcs

     Band Structure Calculation
     Davidson diagonalization with overlap

     ethr =  1.25E-10,  avg # of iterations = 12.8

     total cpu time spent up to now is       14.7 secs

     End of band structure calculation

     Number of k-points >= 100: set verbosity='high' to print the bands.

     highest occupied level (ev):     6.1106

     Writing config to output data dir /fastscratch/tsievers/QE_TMP_DIR/_ph0/silicon_ph_bench_nd_1_n_procs_16_3.save/

     default                                                                    

     bravais-lattice index     =            2
     lattice parameter (alat)  =      10.1899  a.u.
     unit-cell volume          =     264.5151 (a.u.)^3
     number of atoms/cell      =            2
     number of atomic types    =            1
     kinetic-energy cut-off    =      70.0000  Ry
     charge density cut-off    =     280.0000  Ry
     convergence threshold     =      1.0E-15
     beta                      =       0.7000
     number of iterations used =            4
     Exchange-correlation= PW
                           (   1   4   0   0   0   0   0)


     celldm(1)=   10.18990  celldm(2)=    0.00000  celldm(3)=    0.00000
     celldm(4)=    0.00000  celldm(5)=    0.00000  celldm(6)=    0.00000

     crystal axes: (cart. coord. in units of alat)
               a(1) = ( -0.5000  0.0000  0.5000 )  
               a(2) = (  0.0000  0.5000  0.5000 )  
               a(3) = ( -0.5000  0.5000  0.0000 )  

     reciprocal axes: (cart. coord. in units 2 pi/alat)
               b(1) = ( -1.0000 -1.0000  1.0000 )  
               b(2) = (  1.0000  1.0000  1.0000 )  
               b(3) = ( -1.0000  1.0000 -1.0000 )  


     Atoms inside the unit cell: 

     Cartesian axes

     site n.  atom      mass           positions (alat units)
        1     Si  28.0855   tau(    1) = (    0.00000    0.00000    0.00000  )
        2     Si  28.0855   tau(    2) = (   -0.25000    0.25000    0.25000  )

     Computing dynamical matrix for 
                    q = (   0.0000000   0.3333333   0.0000000 )
 
      8 Sym.Ops. (no q -> -q+G )


     G cutoff =  736.4420  (   1306 G-vectors)     FFT grid: ( 40, 40, 40)
     number of k points=   252

     PseudoPot. # 1 for Si read from file:
     ./pseudos/Si.nc.UPF
     MD5 check sum: 9e2d726316af3d4752eea8ab0afbb951
     Pseudo is Norm-conserving + core correction, Zval =  4.0
     Generated using ONCVPSP code by D. R. Hamann
     Using radial grid of 1510 points,  6 beta functions with: 
                l(1) =   0
                l(2) =   0
                l(3) =   1
                l(4) =   1
                l(5) =   2
                l(6) =   2

     Mode symmetry, C_4v (4mm)  point group:


     Atomic displacements:
     There are    4 irreducible representations

     Representation     1      1 modes -  To be done

     Representation     2      1 modes -  To be done

     Representation     3      2 modes -  To be done

     Representation     4      2 modes -  To be done



     Alpha used in Ewald sum =   2.8000
     PHONON       :   3m11.48s CPU   3m43.49s WALL



     Representation #   1 mode #   1

     Self-consistent Calculation

      iter #   1 total cpu time :   224.4 secs   av.it.:   6.8
      thresh= 1.000E-02 alpha_mix =  0.700 |ddv_scf|^2 =  1.447E-03

      iter #   2 total cpu time :   225.6 secs   av.it.:   9.2
      thresh= 3.805E-03 alpha_mix =  0.700 |ddv_scf|^2 =  4.414E-02

      iter #   3 total cpu time :   226.6 secs   av.it.:   8.1
      thresh= 1.000E-02 alpha_mix =  0.700 |ddv_scf|^2 =  4.044E-08

      iter #   4 total cpu time :   227.6 secs   av.it.:   9.1
      thresh= 2.011E-05 alpha_mix =  0.700 |ddv_scf|^2 =  1.946E-09

      iter #   5 total cpu time :   228.7 secs   av.it.:   8.7
      thresh= 4.411E-06 alpha_mix =  0.700 |ddv_scf|^2 =  6.288E-10

      iter #   6 total cpu time :   229.7 secs   av.it.:   8.3
      thresh= 2.508E-06 alpha_mix =  0.700 |ddv_scf|^2 =  8.673E-13

      iter #   7 total cpu time :   230.7 secs   av.it.:   8.6
      thresh= 9.313E-08 alpha_mix =  0.700 |ddv_scf|^2 =  1.882E-14

      iter #   8 total cpu time :   231.7 secs   av.it.:   8.6
      thresh= 1.372E-08 alpha_mix =  0.700 |ddv_scf|^2 =  2.470E-16

     End of self-consistent calculation

     Convergence has been achieved 


     Representation #   2 mode #   2

     Self-consistent Calculation

      iter #   1 total cpu time :   232.6 secs   av.it.:   5.9
      thresh= 1.000E-02 alpha_mix =  0.700 |ddv_scf|^2 =  2.210E-07

      iter #   2 total cpu time :   233.8 secs   av.it.:  10.6
      thresh= 4.701E-05 alpha_mix =  0.700 |ddv_scf|^2 =  3.573E-08

      iter #   3 total cpu time :   235.0 secs   av.it.:  10.3
      thresh= 1.890E-05 alpha_mix =  0.700 |ddv_scf|^2 =  4.519E-10

      iter #   4 total cpu time :   236.2 secs   av.it.:  10.4
      thresh= 2.126E-06 alpha_mix =  0.700 |ddv_scf|^2 =  1.877E-11

      iter #   5 total cpu time :   237.4 secs   av.it.:  10.5
      thresh= 4.332E-07 alpha_mix =  0.700 |ddv_scf|^2 =  4.275E-14

      iter #   6 total cpu time :   238.5 secs   av.it.:  10.6
      thresh= 2.068E-08 alpha_mix =  0.700 |ddv_scf|^2 =  8.547E-16

     End of self-consistent calculation

     Convergence has been achieved 


     Representation #   3 modes #   3   4

     Self-consistent Calculation

      iter #   1 total cpu time :   240.2 secs   av.it.:   6.1
      thresh= 1.000E-02 alpha_mix =  0.700 |ddv_scf|^2 =  3.999E-08

      iter #   2 total cpu time :   242.8 secs   av.it.:  11.5
      thresh= 2.000E-05 alpha_mix =  0.700 |ddv_scf|^2 =  3.645E-09

      iter #   3 total cpu time :   245.3 secs   av.it.:  11.3
      thresh= 6.038E-06 alpha_mix =  0.700 |ddv_scf|^2 =  4.249E-11

      iter #   4 total cpu time :   247.8 secs   av.it.:  11.4
      thresh= 6.518E-07 alpha_mix =  0.700 |ddv_scf|^2 =  4.779E-13

      iter #   5 total cpu time :   250.3 secs   av.it.:  11.4
      thresh= 6.913E-08 alpha_mix =  0.700 |ddv_scf|^2 =  7.933E-15

      iter #   6 total cpu time :   252.9 secs   av.it.:  11.8
      thresh= 8.907E-09 alpha_mix =  0.700 |ddv_scf|^2 =  3.230E-17

     End of self-consistent calculation

     Convergence has been achieved 


     Representation #   4 modes #   5   6

     Self-consistent Calculation

      iter #   1 total cpu time :   254.6 secs   av.it.:   6.0
      thresh= 1.000E-02 alpha_mix =  0.700 |ddv_scf|^2 =  5.272E-08

      iter #   2 total cpu time :   258.9 secs   av.it.:  11.4
      thresh= 2.296E-05 alpha_mix =  0.700 |ddv_scf|^2 =  4.971E-09

      iter #   3 total cpu time :   261.5 secs   av.it.:  11.1
      thresh= 7.051E-06 alpha_mix =  0.700 |ddv_scf|^2 =  4.498E-11

      iter #   4 total cpu time :   264.0 secs   av.it.:  11.4
      thresh= 6.707E-07 alpha_mix =  0.700 |ddv_scf|^2 =  3.058E-13

      iter #   5 total cpu time :   266.5 secs   av.it.:  11.3
      thresh= 5.530E-08 alpha_mix =  0.700 |ddv_scf|^2 =  7.262E-15

      iter #   6 total cpu time :   269.0 secs   av.it.:  11.7
      thresh= 8.522E-09 alpha_mix =  0.700 |ddv_scf|^2 =  3.075E-17

     End of self-consistent calculation

     Convergence has been achieved 
 
     Number of q in the star =    6
     List of q in the star:
          1   0.000000000   0.333333333   0.000000000
          2   0.333333333   0.000000000   0.000000000
          3   0.000000000   0.000000000   0.333333333
          4   0.000000000  -0.333333333   0.000000000
          5  -0.333333333   0.000000000   0.000000000
          6   0.000000000   0.000000000  -0.333333333

     Diagonalizing the dynamical matrix

     q = (    0.000000000   0.333333333   0.000000000 ) 

 **************************************************************************
     freq (    1) =       2.948439 [THz] =      98.349332 [cm-1]
     freq (    2) =       2.948439 [THz] =      98.349332 [cm-1]
     freq (    3) =       4.953316 [THz] =     165.224848 [cm-1]
     freq (    4) =      14.670275 [THz] =     489.347684 [cm-1]
     freq (    5) =      14.670275 [THz] =     489.347684 [cm-1]
     freq (    6) =      15.142887 [THz] =     505.112329 [cm-1]
 **************************************************************************

     Mode symmetry, C_4v (4mm)  point group:

     freq (   1-   2) =         98.3  [cm-1]   --> E    G_5 D_5       
     freq (   3-   3) =        165.2  [cm-1]   --> A_1  G_1 D_1       
     freq (   4-   5) =        489.3  [cm-1]   --> E    G_5 D_5       
     freq (   6-   6) =        505.1  [cm-1]   --> B_2  G_4 D_2'      

     Calculation of q =   -0.1666667   0.5000000  -0.1666667
 
     Parallelization info
     --------------------
     sticks:   dense  smooth     PW     G-vecs:    dense   smooth      PW
     Min          62      62     19                 1303     1303     237
     Max          63      63     20                 1306     1306     242
     Sum        1003    1003    313                20875    20875    3839
 
     Using Slab Decomposition
 

     Title: 
     default                                                                    


     bravais-lattice index     =            2
     lattice parameter (alat)  =      10.1899  a.u.
     unit-cell volume          =     264.5151 (a.u.)^3
     number of atoms/cell      =            2
     number of atomic types    =            1
     number of electrons       =         8.00
     number of Kohn-Sham states=            4
     kinetic-energy cutoff     =      70.0000  Ry
     charge density cutoff     =     280.0000  Ry
     Exchange-correlation= PW
                           (   1   4   0   0   0   0   0)

     celldm(1)=  10.189905  celldm(2)=   0.000000  celldm(3)=   0.000000
     celldm(4)=   0.000000  celldm(5)=   0.000000  celldm(6)=   0.000000

     crystal axes: (cart. coord. in units of alat)
               a(1) = (  -0.500000   0.000000   0.500000 )  
               a(2) = (   0.000000   0.500000   0.500000 )  
               a(3) = (  -0.500000   0.500000   0.000000 )  

     reciprocal axes: (cart. coord. in units 2 pi/alat)
               b(1) = ( -1.000000 -1.000000  1.000000 )  
               b(2) = (  1.000000  1.000000  1.000000 )  
               b(3) = ( -1.000000  1.000000 -1.000000 )  


     PseudoPot. # 1 for Si read from file:
     ./pseudos/Si.nc.UPF
     MD5 check sum: 9e2d726316af3d4752eea8ab0afbb951
     Pseudo is Norm-conserving + core correction, Zval =  4.0
     Generated using ONCVPSP code by D. R. Hamann
     Using radial grid of 1510 points,  6 beta functions with: 
                l(1) =   0
                l(2) =   0
                l(3) =   1
                l(4) =   1
                l(5) =   2
                l(6) =   2

     atomic species   valence    mass     pseudopotential
        Si             4.00    28.08550     Si( 1.00)

     48 Sym. Ops., with inversion, found



   Cartesian axes

     site n.     atom                  positions (alat units)
         1           Si  tau(   1) = (   0.0000000   0.0000000   0.0000000  )
         2           Si  tau(   2) = (  -0.2500000   0.2500000   0.2500000  )

     number of k points=   936

     Number of k-points >= 100: set verbosity='high' to print them.

     Dense  grid:    20875 G-vectors     FFT dimensions: (  40,  40,  40)

     Estimated max dynamical RAM per process >       2.06 MB

     Estimated total dynamical RAM >      33.00 MB

     The potential is recalculated from file :
     /fastscratch/tsievers/QE_TMP_DIR/_ph0/silicon_ph_bench_nd_1_n_procs_16_3.save/charge-density

     Starting wfcs are    8 atomic wfcs

     Band Structure Calculation
     Davidson diagonalization with overlap

     ethr =  1.25E-10,  avg # of iterations = 12.8

     total cpu time spent up to now is       25.5 secs

     End of band structure calculation

     Number of k-points >= 100: set verbosity='high' to print the bands.

     highest occupied level (ev):     6.1106

     Writing config to output data dir /fastscratch/tsievers/QE_TMP_DIR/_ph0/silicon_ph_bench_nd_1_n_procs_16_3.save/

     default                                                                    

     bravais-lattice index     =            2
     lattice parameter (alat)  =      10.1899  a.u.
     unit-cell volume          =     264.5151 (a.u.)^3
     number of atoms/cell      =            2
     number of atomic types    =            1
     kinetic-energy cut-off    =      70.0000  Ry
     charge density cut-off    =     280.0000  Ry
     convergence threshold     =      1.0E-15
     beta                      =       0.7000
     number of iterations used =            4
     Exchange-correlation= PW
                           (   1   4   0   0   0   0   0)


     celldm(1)=   10.18990  celldm(2)=    0.00000  celldm(3)=    0.00000
     celldm(4)=    0.00000  celldm(5)=    0.00000  celldm(6)=    0.00000

     crystal axes: (cart. coord. in units of alat)
               a(1) = ( -0.5000  0.0000  0.5000 )  
               a(2) = (  0.0000  0.5000  0.5000 )  
               a(3) = ( -0.5000  0.5000  0.0000 )  

     reciprocal axes: (cart. coord. in units 2 pi/alat)
               b(1) = ( -1.0000 -1.0000  1.0000 )  
               b(2) = (  1.0000  1.0000  1.0000 )  
               b(3) = ( -1.0000  1.0000 -1.0000 )  


     Atoms inside the unit cell: 

     Cartesian axes

     site n.  atom      mass           positions (alat units)
        1     Si  28.0855   tau(    1) = (    0.00000    0.00000    0.00000  )
        2     Si  28.0855   tau(    2) = (   -0.25000    0.25000    0.25000  )

     Computing dynamical matrix for 
[...]
      thresh= 1.000E-02 alpha_mix =  0.700 |ddv_scf|^2 =  3.738E-06

      iter #   2 total cpu time :  1860.0 secs   av.it.:  10.9
      thresh= 1.933E-04 alpha_mix =  0.700 |ddv_scf|^2 =  4.740E-06

      iter #   3 total cpu time :  1863.8 secs   av.it.:  10.1
      thresh= 2.177E-04 alpha_mix =  0.700 |ddv_scf|^2 =  5.425E-08

      iter #   4 total cpu time :  1867.6 secs   av.it.:  10.3
      thresh= 2.329E-05 alpha_mix =  0.700 |ddv_scf|^2 =  2.729E-10

      iter #   5 total cpu time :  1871.6 secs   av.it.:  10.7
      thresh= 1.652E-06 alpha_mix =  0.700 |ddv_scf|^2 =  6.925E-12

      iter #   6 total cpu time :  1875.6 secs   av.it.:  10.8
      thresh= 2.631E-07 alpha_mix =  0.700 |ddv_scf|^2 =  4.058E-14

      iter #   7 total cpu time :  1879.6 secs   av.it.:  10.6
      thresh= 2.014E-08 alpha_mix =  0.700 |ddv_scf|^2 =  4.609E-15

      iter #   8 total cpu time :  1883.5 secs   av.it.:  10.7
      thresh= 6.789E-09 alpha_mix =  0.700 |ddv_scf|^2 =  3.581E-16

     End of self-consistent calculation

     Convergence has been achieved 


     Representation #   6 mode #   6

     Self-consistent Calculation

      iter #   1 total cpu time :  1886.5 secs   av.it.:   6.3
      thresh= 1.000E-02 alpha_mix =  0.700 |ddv_scf|^2 =  1.756E-06

      iter #   2 total cpu time :  1891.0 secs   av.it.:  10.9
      thresh= 1.325E-04 alpha_mix =  0.700 |ddv_scf|^2 =  1.926E-06

      iter #   3 total cpu time :  1894.8 secs   av.it.:  10.0
      thresh= 1.388E-04 alpha_mix =  0.700 |ddv_scf|^2 =  4.716E-08

      iter #   4 total cpu time :  1898.6 secs   av.it.:  10.2
      thresh= 2.172E-05 alpha_mix =  0.700 |ddv_scf|^2 =  1.539E-10

      iter #   5 total cpu time :  1902.6 secs   av.it.:  10.6
      thresh= 1.240E-06 alpha_mix =  0.700 |ddv_scf|^2 =  2.898E-12

      iter #   6 total cpu time :  1906.6 secs   av.it.:  10.7
      thresh= 1.702E-07 alpha_mix =  0.700 |ddv_scf|^2 =  1.357E-14

      iter #   7 total cpu time :  1910.6 secs   av.it.:  10.7
      thresh= 1.165E-08 alpha_mix =  0.700 |ddv_scf|^2 =  7.726E-16

     End of self-consistent calculation

     Convergence has been achieved 
 
     Number of q in the star =   24
     List of q in the star:
          1   0.500000000  -0.166666667   0.833333333
          2   0.833333333   0.166666667   0.500000000
          3   0.500000000   0.166666667   0.833333333
          4  -0.833333333  -0.166666667   0.500000000
          5  -0.833333333  -0.166666667  -0.500000000
          6  -0.500000000  -0.166666667  -0.833333333
          7   0.833333333  -0.166666667   0.500000000
          8  -0.500000000  -0.166666667   0.833333333
          9  -0.833333333   0.166666667   0.500000000
         10   0.833333333   0.166666667  -0.500000000
         11   0.833333333  -0.166666667  -0.500000000
         12   0.500000000   0.166666667  -0.833333333
         13  -0.500000000   0.166666667   0.833333333
         14  -0.500000000   0.166666667  -0.833333333
         15  -0.833333333   0.166666667  -0.500000000
         16   0.833333333  -0.500000000   0.166666667
         17   0.833333333   0.500000000  -0.166666667
         18  -0.833333333  -0.500000000  -0.166666667
         19  -0.833333333   0.500000000   0.166666667
         20   0.166666667  -0.500000000   0.833333333
         21  -0.166666667   0.500000000   0.833333333
         22   0.166666667   0.500000000  -0.833333333
         23  -0.166666667  -0.500000000  -0.833333333
         24  -0.500000000   0.833333333   0.166666667

     Diagonalizing the dynamical matrix

     q = (    0.500000000  -0.166666667   0.833333333 ) 

 **************************************************************************
     freq (    1) =       5.052006 [THz] =     168.516785 [cm-1]
     freq (    2) =       6.066572 [THz] =     202.359064 [cm-1]
     freq (    3) =       9.812901 [THz] =     327.323155 [cm-1]
     freq (    4) =      11.453481 [THz] =     382.047019 [cm-1]
     freq (    5) =      14.041981 [THz] =     468.390076 [cm-1]
     freq (    6) =      14.270592 [THz] =     476.015715 [cm-1]
 **************************************************************************

     Calculation of q =   -0.3333333  -1.0000000   0.0000000
 
     Parallelization info
     --------------------
     sticks:   dense  smooth     PW     G-vecs:    dense   smooth      PW
     Min          62      62     21                 1303     1303     266
     Max          63      63     22                 1306     1306     269
     Sum        1003    1003    349                20875    20875    4279
 
     Using Slab Decomposition
 

     Title: 
     default                                                                    


     bravais-lattice index     =            2
     lattice parameter (alat)  =      10.1899  a.u.
     unit-cell volume          =     264.5151 (a.u.)^3
     number of atoms/cell      =            2
     number of atomic types    =            1
     number of electrons       =         8.00
     number of Kohn-Sham states=            4
     kinetic-energy cutoff     =      70.0000  Ry
     charge density cutoff     =     280.0000  Ry
     Exchange-correlation= PW
                           (   1   4   0   0   0   0   0)

     celldm(1)=  10.189905  celldm(2)=   0.000000  celldm(3)=   0.000000
     celldm(4)=   0.000000  celldm(5)=   0.000000  celldm(6)=   0.000000

     crystal axes: (cart. coord. in units of alat)
               a(1) = (  -0.500000   0.000000   0.500000 )  
               a(2) = (   0.000000   0.500000   0.500000 )  
               a(3) = (  -0.500000   0.500000   0.000000 )  

     reciprocal axes: (cart. coord. in units 2 pi/alat)
               b(1) = ( -1.000000 -1.000000  1.000000 )  
               b(2) = (  1.000000  1.000000  1.000000 )  
               b(3) = ( -1.000000  1.000000 -1.000000 )  


     PseudoPot. # 1 for Si read from file:
     ./pseudos/Si.nc.UPF
     MD5 check sum: 9e2d726316af3d4752eea8ab0afbb951
     Pseudo is Norm-conserving + core correction, Zval =  4.0
     Generated using ONCVPSP code by D. R. Hamann
     Using radial grid of 1510 points,  6 beta functions with: 
                l(1) =   0
                l(2) =   0
                l(3) =   1
                l(4) =   1
                l(5) =   2
                l(6) =   2

     atomic species   valence    mass     pseudopotential
        Si             4.00    28.08550     Si( 1.00)

     48 Sym. Ops., with inversion, found



   Cartesian axes

     site n.     atom                  positions (alat units)
         1           Si  tau(   1) = (   0.0000000   0.0000000   0.0000000  )
         2           Si  tau(   2) = (  -0.2500000   0.2500000   0.2500000  )

     number of k points=   432

     Number of k-points >= 100: set verbosity='high' to print them.

     Dense  grid:    20875 G-vectors     FFT dimensions: (  40,  40,  40)

     Estimated max dynamical RAM per process >       2.09 MB

     Estimated total dynamical RAM >      33.40 MB

     The potential is recalculated from file :
     /fastscratch/tsievers/QE_TMP_DIR/_ph0/silicon_ph_bench_nd_1_n_procs_16_3.save/charge-density

     Starting wfcs are    8 atomic wfcs

     Band Structure Calculation
     Davidson diagonalization with overlap

     ethr =  1.25E-10,  avg # of iterations = 12.8

     total cpu time spent up to now is      108.0 secs

     End of band structure calculation

     Number of k-points >= 100: set verbosity='high' to print the bands.

     highest occupied level (ev):     6.1106

     Writing config to output data dir /fastscratch/tsievers/QE_TMP_DIR/_ph0/silicon_ph_bench_nd_1_n_procs_16_3.save/

     default                                                                    

     bravais-lattice index     =            2
     lattice parameter (alat)  =      10.1899  a.u.
     unit-cell volume          =     264.5151 (a.u.)^3
     number of atoms/cell      =            2
     number of atomic types    =            1
     kinetic-energy cut-off    =      70.0000  Ry
     charge density cut-off    =     280.0000  Ry
     convergence threshold     =      1.0E-15
     beta                      =       0.7000
     number of iterations used =            4
     Exchange-correlation= PW
                           (   1   4   0   0   0   0   0)


     celldm(1)=   10.18990  celldm(2)=    0.00000  celldm(3)=    0.00000
     celldm(4)=    0.00000  celldm(5)=    0.00000  celldm(6)=    0.00000

     crystal axes: (cart. coord. in units of alat)
               a(1) = ( -0.5000  0.0000  0.5000 )  
               a(2) = (  0.0000  0.5000  0.5000 )  
               a(3) = ( -0.5000  0.5000  0.0000 )  

     reciprocal axes: (cart. coord. in units 2 pi/alat)
               b(1) = ( -1.0000 -1.0000  1.0000 )  
               b(2) = (  1.0000  1.0000  1.0000 )  
               b(3) = ( -1.0000  1.0000 -1.0000 )  


     Atoms inside the unit cell: 

     Cartesian axes

     site n.  atom      mass           positions (alat units)
        1     Si  28.0855   tau(    1) = (    0.00000    0.00000    0.00000  )
        2     Si  28.0855   tau(    2) = (   -0.25000    0.25000    0.25000  )

     Computing dynamical matrix for 
                    q = (  -0.3333333  -1.0000000   0.0000000 )
 
      4 Sym.Ops. (no q -> -q+G )


     G cutoff =  736.4420  (   1306 G-vectors)     FFT grid: ( 40, 40, 40)
     number of k points=   432

     PseudoPot. # 1 for Si read from file:
     ./pseudos/Si.nc.UPF
     MD5 check sum: 9e2d726316af3d4752eea8ab0afbb951
     Pseudo is Norm-conserving + core correction, Zval =  4.0
     Generated using ONCVPSP code by D. R. Hamann
     Using radial grid of 1510 points,  6 beta functions with: 
                l(1) =   0
                l(2) =   0
                l(3) =   1
                l(4) =   1
                l(5) =   2
                l(6) =   2


     Atomic displacements:
     There are    3 irreducible representations

     Representation     1      2 modes -  To be done

     Representation     2      2 modes -  To be done

     Representation     3      2 modes -  To be done



     Alpha used in Ewald sum =   2.8000
     PHONON       :  28m40.97s CPU  31m57.89s WALL



     Representation #   1 modes #   1   2

     Self-consistent Calculation

      iter #   1 total cpu time :  1920.8 secs   av.it.:   6.2
      thresh= 1.000E-02 alpha_mix =  0.700 |ddv_scf|^2 =  3.502E-07

      iter #   2 total cpu time :  1925.1 secs   av.it.:  11.6
      thresh= 5.917E-05 alpha_mix =  0.700 |ddv_scf|^2 =  3.905E-07

      iter #   3 total cpu time :  1929.2 secs   av.it.:  11.0
      thresh= 6.249E-05 alpha_mix =  0.700 |ddv_scf|^2 =  3.180E-09

      iter #   4 total cpu time :  1933.3 secs   av.it.:  11.1
      thresh= 5.639E-06 alpha_mix =  0.700 |ddv_scf|^2 =  6.453E-11

      iter #   5 total cpu time :  1937.5 secs   av.it.:  11.3
      thresh= 8.033E-07 alpha_mix =  0.700 |ddv_scf|^2 =  7.446E-13

      iter #   6 total cpu time :  1941.8 secs   av.it.:  11.5
      thresh= 8.629E-08 alpha_mix =  0.700 |ddv_scf|^2 =  1.492E-14

      iter #   7 total cpu time :  1945.9 secs   av.it.:  11.4
      thresh= 1.221E-08 alpha_mix =  0.700 |ddv_scf|^2 =  7.750E-16

     End of self-consistent calculation

     Convergence has been achieved 


     Representation #   2 modes #   3   4

     Self-consistent Calculation

      iter #   1 total cpu time :  1949.0 secs   av.it.:   6.4
      thresh= 1.000E-02 alpha_mix =  0.700 |ddv_scf|^2 =  6.349E-07

      iter #   2 total cpu time :  1954.7 secs   av.it.:  11.6
      thresh= 7.968E-05 alpha_mix =  0.700 |ddv_scf|^2 =  7.119E-07

      iter #   3 total cpu time :  1958.9 secs   av.it.:  11.0
      thresh= 8.438E-05 alpha_mix =  0.700 |ddv_scf|^2 =  6.153E-09

      iter #   4 total cpu time :  1963.0 secs   av.it.:  11.1
      thresh= 7.844E-06 alpha_mix =  0.700 |ddv_scf|^2 =  6.417E-11

      iter #   5 total cpu time :  1967.9 secs   av.it.:  11.3
      thresh= 8.011E-07 alpha_mix =  0.700 |ddv_scf|^2 =  1.462E-12

      iter #   6 total cpu time :  1972.5 secs   av.it.:  11.5
      thresh= 1.209E-07 alpha_mix =  0.700 |ddv_scf|^2 =  1.160E-14

      iter #   7 total cpu time :  1976.8 secs   av.it.:  11.4
      thresh= 1.077E-08 alpha_mix =  0.700 |ddv_scf|^2 =  7.334E-16

     End of self-consistent calculation

     Convergence has been achieved 


     Representation #   3 modes #   5   6

     Self-consistent Calculation

      iter #   1 total cpu time :  1979.8 secs   av.it.:   6.5
      thresh= 1.000E-02 alpha_mix =  0.700 |ddv_scf|^2 =  8.409E-07

      iter #   2 total cpu time :  1984.9 secs   av.it.:  11.5
      thresh= 9.170E-05 alpha_mix =  0.700 |ddv_scf|^2 =  9.229E-07

      iter #   3 total cpu time :  1989.5 secs   av.it.:  10.9
      thresh= 9.607E-05 alpha_mix =  0.700 |ddv_scf|^2 =  7.447E-09

      iter #   4 total cpu time :  1993.6 secs   av.it.:  10.9
      thresh= 8.630E-06 alpha_mix =  0.700 |ddv_scf|^2 =  5.058E-11

      iter #   5 total cpu time :  1997.9 secs   av.it.:  11.3
      thresh= 7.112E-07 alpha_mix =  0.700 |ddv_scf|^2 =  4.798E-13

      iter #   6 total cpu time :  2002.1 secs   av.it.:  11.3
      thresh= 6.926E-08 alpha_mix =  0.700 |ddv_scf|^2 =  8.430E-15

      iter #   7 total cpu time :  2006.2 secs   av.it.:  11.3
      thresh= 9.182E-09 alpha_mix =  0.700 |ddv_scf|^2 =  5.064E-16

     End of self-consistent calculation

     Convergence has been achieved 
 
     Number of q in the star =   12
     List of q in the star:
          1  -0.333333333  -1.000000000   0.000000000
          2   0.000000000  -1.000000000  -0.333333333
          3   0.000000000  -1.000000000   0.333333333
          4   0.333333333  -1.000000000   0.000000000
          5  -1.000000000   0.000000000  -0.333333333
          6   1.000000000   0.000000000   0.333333333
          7   0.000000000   0.333333333   1.000000000
          8   0.000000000  -0.333333333  -1.000000000
          9  -1.000000000  -0.333333333   0.000000000
         10   1.000000000   0.333333333   0.000000000
         11  -0.333333333   0.000000000   1.000000000
         12   0.333333333   0.000000000   1.000000000

     Diagonalizing the dynamical matrix

     q = (   -0.333333333  -1.000000000   0.000000000 ) 

 **************************************************************************
     freq (    1) =       5.494045 [THz] =     183.261615 [cm-1]
     freq (    2) =       5.494045 [THz] =     183.261615 [cm-1]
     freq (    3) =      10.966348 [THz] =     365.797991 [cm-1]
     freq (    4) =      10.966348 [THz] =     365.797991 [cm-1]
     freq (    5) =      14.002437 [THz] =     467.071036 [cm-1]
     freq (    6) =      14.002437 [THz] =     467.071036 [cm-1]
 **************************************************************************
 
     init_run     :      0.31s CPU      0.35s WALL (      15 calls)
     electrons    :     89.26s CPU     94.65s WALL (      15 calls)

     Called by init_run:
     wfcinit      :      0.00s CPU      0.02s WALL (      15 calls)
     potinit      :      0.02s CPU      0.03s WALL (      15 calls)
     hinit0       :      0.12s CPU      0.13s WALL (      15 calls)

     Called by electrons:
     c_bands      :     89.26s CPU     94.65s WALL (      15 calls)
     v_of_rho     :      0.01s CPU      0.01s WALL (      16 calls)

     Called by c_bands:
     init_us_2    :     14.43s CPU     15.28s WALL (  251405 calls)
     init_us_2:cp :     13.83s CPU     14.73s WALL (  251405 calls)
     cegterg      :     74.39s CPU     78.13s WALL (    8380 calls)

     Called by *egterg:
     cdiaghg      :      6.55s CPU      6.94s WALL (  115750 calls)
     h_psi        :   1273.22s CPU   1342.98s WALL ( 2447149 calls)
     g_psi        :      0.55s CPU      0.58s WALL (  107370 calls)

     Called by h_psi:
     h_psi:calbec :     88.82s CPU     93.59s WALL ( 2447149 calls)
     vloc_psi     :   1107.62s CPU   1168.52s WALL ( 2447149 calls)
     add_vuspsi   :     56.67s CPU     60.34s WALL ( 2447149 calls)

     General routines
     calbec       :    147.61s CPU    156.80s WALL ( 4913664 calls)
     fft          :      0.62s CPU      0.67s WALL (    3953 calls)
     ffts         :      3.46s CPU      3.60s WALL (   25932 calls)
     fftw         :   1246.65s CPU   1314.04s WALL (20897366 calls)
     davcio       :      9.30s CPU     34.10s WALL ( 1062088 calls)
 
     Parallel routines
 
     PHONON       :  30m 0.04s CPU  33m27.54s WALL

     INITIALIZATION: 
     phq_setup    :      0.04s CPU      0.09s WALL (      16 calls)
     phq_init     :      4.21s CPU      5.06s WALL (      16 calls)
 
     phq_init     :      4.21s CPU      5.06s WALL (      16 calls)
     set_drhoc    :      0.58s CPU      0.58s WALL (      48 calls)
     init_vloc    :      0.04s CPU      0.04s WALL (      16 calls)
     init_us_1    :      0.03s CPU      0.04s WALL (      16 calls)
     init_us_2    :     14.43s CPU     15.28s WALL (  251405 calls)
 
     DYNAMICAL MATRIX:
     dynmat0      :      2.92s CPU      3.67s WALL (      16 calls)
     phqscf       :   1696.80s CPU   1871.13s WALL (      16 calls)
     dynmatrix    :      0.22s CPU      0.33s WALL (      16 calls)
 
     phqscf       :   1696.80s CPU   1871.13s WALL (      16 calls)
     solve_linter :   1691.34s CPU   1863.78s WALL (      76 calls)
     drhodv       :      5.39s CPU      5.83s WALL (      76 calls)
 
     dynmat0      :      2.92s CPU      3.67s WALL (      16 calls)
     dynmat_us    :      2.48s CPU      2.57s WALL (      16 calls)
     d2ionq       :      0.01s CPU      0.01s WALL (      16 calls)
     dynmatcc     :      0.41s CPU      0.41s WALL (      16 calls)
 
     dynmat_us    :      2.48s CPU      2.57s WALL (      16 calls)
 
     phqscf       :   1696.80s CPU   1871.13s WALL (      16 calls)
     solve_linter :   1691.34s CPU   1863.78s WALL (      76 calls)
 
     solve_linter :   1691.34s CPU   1863.78s WALL (      76 calls)
     dvqpsi_us    :     20.93s CPU     22.02s WALL (   25476 calls)
     sth_kernel   :   1648.93s CPU   1758.83s WALL (     589 calls)
     apply_dpot_b :     96.29s CPU    101.83s WALL (  177951 calls)
     ortho        :      5.66s CPU      6.00s WALL (  203427 calls)
     cgsolve      :   1378.11s CPU   1453.84s WALL (  203427 calls)
     incdrhoscf   :    145.23s CPU    151.35s WALL (  203343 calls)
     dv_of_drho   :      0.24s CPU      0.24s WALL (     716 calls)
     mix_pot      :      3.51s CPU     37.40s WALL (     589 calls)
     psymdvscf    :      8.04s CPU      8.13s WALL (     584 calls)
 
     dvqpsi_us    :     20.93s CPU     22.02s WALL (   25476 calls)
     dvqpsi_us_on :      3.76s CPU      3.96s WALL (   25476 calls)
 
     cgsolve      :   1378.11s CPU   1453.84s WALL (  203427 calls)
     ch_psi       :   1340.98s CPU   1414.01s WALL ( 2323019 calls)
 
     ch_psi       :   1340.98s CPU   1414.01s WALL ( 2323019 calls)
     h_psi        :   1273.22s CPU   1342.98s WALL ( 2447149 calls)
     last         :    113.29s CPU    119.51s WALL ( 2323019 calls)
 
     h_psi        :   1273.22s CPU   1342.98s WALL ( 2447149 calls)
     add_vuspsi   :     56.67s CPU     60.34s WALL ( 2447149 calls)
 
     incdrhoscf   :    145.23s CPU    151.35s WALL (  203343 calls)
 
 
      General routines
     calbec       :    147.61s CPU    156.80s WALL ( 4913664 calls)
     fft          :      0.62s CPU      0.67s WALL (    3953 calls)
     ffts         :      3.46s CPU      3.60s WALL (   25932 calls)
     fftw         :   1246.65s CPU   1314.04s WALL (20897366 calls)
     davcio       :      9.30s CPU     34.10s WALL ( 1062088 calls)
     write_rec    :      0.46s CPU     27.86s WALL (     665 calls)
 
 
     PHONON       :  30m 0.04s CPU  33m27.54s WALL

 
   This run was terminated on:   2:34: 0  26Jun2022            

=------------------------------------------------------------------------------=
   JOB DONE.
=------------------------------------------------------------------------------=
real 2009.88
user 29228.97
sys 1518.73
