Module for gcc 10.2:
(GNU C/C++/FORTRAN compilers v10.2.0) - loaded.
Module for OpenMPI 4.1.0-gcc10.2-infiniband loaded.

     Program PWSCF v.7.0 starts on  7Feb2022 at 14:56:25 

     This program is part of the open-source Quantum ESPRESSO suite
     for quantum simulation of materials; please cite
         "P. Giannozzi et al., J. Phys.:Condens. Matter 21 395502 (2009);
         "P. Giannozzi et al., J. Phys.:Condens. Matter 29 465901 (2017);
         "P. Giannozzi et al., J. Chem. Phys. 152 154105 (2020);
          URL http://www.quantum-espresso.org", 
     in publications or presentations arising from this work. More details at
     http://www.quantum-espresso.org/quote

     Parallel version (MPI), running on     1 processors

     MPI processes distributed on     1 nodes
     62759 MiB available memory on the printing compute node when the environment starts

     Reading input from in_files/ec_29.scf

     Current dimensions of program PWSCF are:
     Max number of different atomic species (ntypx) = 10
     Max number of k-points (npk) =  40000
     Max angular momentum in pseudopotentials (lmaxx) =  4

     Subspace diagonalization in iterative solution of the eigenvalue problem:
     a serial algorithm will be used


     G-vector sticks info
     --------------------
     sticks:   dense  smooth     PW     G-vecs:    dense   smooth      PW
     Sum         421     421    139                 5601     5601    1067

     Using Slab Decomposition



     bravais-lattice index     =            2
     lattice parameter (alat)  =      10.2000  a.u.
     unit-cell volume          =     265.3020 (a.u.)^3
     number of atoms/cell      =            2
     number of atomic types    =            1
     number of electrons       =         8.00
     number of Kohn-Sham states=            4
     kinetic-energy cutoff     =      29.0000  Ry
     charge density cutoff     =     116.0000  Ry
     scf convergence threshold =      1.0E-12
     mixing beta               =       0.7000
     number of iterations used =            8  plain     mixing
     Exchange-correlation= PBE
                           (   1   4   3   4   0   0   0)

     celldm(1)=  10.200000  celldm(2)=   0.000000  celldm(3)=   0.000000
     celldm(4)=   0.000000  celldm(5)=   0.000000  celldm(6)=   0.000000

     crystal axes: (cart. coord. in units of alat)
               a(1) = (  -0.500000   0.000000   0.500000 )  
               a(2) = (   0.000000   0.500000   0.500000 )  
               a(3) = (  -0.500000   0.500000   0.000000 )  

     reciprocal axes: (cart. coord. in units 2 pi/alat)
               b(1) = ( -1.000000 -1.000000  1.000000 )  
               b(2) = (  1.000000  1.000000  1.000000 )  
               b(3) = ( -1.000000  1.000000 -1.000000 )  


     PseudoPot. # 1 for Si read from file:
     ./pseudos/Si_pbe_v0.4.1.nc.sr.upf
     MD5 check sum: 02fab3f35e82123ef5bf1cb05d5b1a5e
     Pseudo is Norm-conserving + core correction, Zval =  4.0
     Generated using ONCVPSP code by D. R. Hamann
     Using radial grid of 1510 points,  6 beta functions with: 
                l(1) =   0
                l(2) =   0
                l(3) =   1
                l(4) =   1
                l(5) =   2
                l(6) =   2

     atomic species   valence    mass     pseudopotential
        Si             4.00    28.08600     Si( 1.00)

     48 Sym. Ops., with inversion, found (24 have fractional translation)



   Cartesian axes

     site n.     atom                  positions (alat units)
         1           Si  tau(   1) = (   0.0000000   0.0000000   0.0000000  )
         2           Si  tau(   2) = (   0.2500000   0.2500000   0.2500000  )

     number of k points=    29
                       cart. coord. in units 2pi/alat
        k(    1) = (   0.0000000   0.0000000   0.0000000), wk =   0.0039062
        k(    2) = (  -0.1250000   0.1250000  -0.1250000), wk =   0.0312500
        k(    3) = (  -0.2500000   0.2500000  -0.2500000), wk =   0.0312500
        k(    4) = (  -0.3750000   0.3750000  -0.3750000), wk =   0.0312500
        k(    5) = (   0.5000000  -0.5000000   0.5000000), wk =   0.0156250
        k(    6) = (   0.0000000   0.2500000   0.0000000), wk =   0.0234375
        k(    7) = (  -0.1250000   0.3750000  -0.1250000), wk =   0.0937500
        k(    8) = (  -0.2500000   0.5000000  -0.2500000), wk =   0.0937500
        k(    9) = (   0.6250000  -0.3750000   0.6250000), wk =   0.0937500
        k(   10) = (   0.5000000  -0.2500000   0.5000000), wk =   0.0937500
        k(   11) = (   0.3750000  -0.1250000   0.3750000), wk =   0.0937500
        k(   12) = (   0.2500000   0.0000000   0.2500000), wk =   0.0468750
        k(   13) = (   0.0000000   0.5000000   0.0000000), wk =   0.0234375
        k(   14) = (  -0.1250000   0.6250000  -0.1250000), wk =   0.0937500
        k(   15) = (   0.7500000  -0.2500000   0.7500000), wk =   0.0937500
        k(   16) = (   0.6250000  -0.1250000   0.6250000), wk =   0.0937500
        k(   17) = (   0.5000000   0.0000000   0.5000000), wk =   0.0468750
        k(   18) = (   0.0000000   0.7500000   0.0000000), wk =   0.0234375
        k(   19) = (   0.8750000  -0.1250000   0.8750000), wk =   0.0937500
        k(   20) = (   0.7500000   0.0000000   0.7500000), wk =   0.0468750
        k(   21) = (   0.0000000  -1.0000000   0.0000000), wk =   0.0117188
        k(   22) = (  -0.2500000   0.5000000   0.0000000), wk =   0.0937500
        k(   23) = (   0.6250000  -0.3750000   0.8750000), wk =   0.1875000
        k(   24) = (   0.5000000  -0.2500000   0.7500000), wk =   0.0937500
        k(   25) = (   0.7500000  -0.2500000   1.0000000), wk =   0.0937500
        k(   26) = (   0.6250000  -0.1250000   0.8750000), wk =   0.1875000
        k(   27) = (   0.5000000   0.0000000   0.7500000), wk =   0.0937500
        k(   28) = (  -0.2500000  -1.0000000   0.0000000), wk =   0.0468750
        k(   29) = (  -0.5000000  -1.0000000   0.0000000), wk =   0.0234375

     Dense  grid:     5601 G-vectors     FFT dimensions: (  32,  32,  32)

     Estimated max dynamical RAM per process >       7.29 MB

     Initial potential from superposition of free atoms

     starting charge       7.9988, renormalised to       8.0000
     Starting wfcs are    8 randomized atomic wfcs

     total cpu time spent up to now is        0.5 secs

     Self-consistent Calculation

     iteration #  1     ecut=    29.00 Ry     beta= 0.70
     Davidson diagonalization with overlap
     ethr =  1.00E-02,  avg # of iterations =  2.0

     Threshold (ethr) on eigenvalues was too large:
     Diagonalizing with lowered threshold

     Davidson diagonalization with overlap
     ethr =  5.91E-04,  avg # of iterations =  2.0

     total cpu time spent up to now is        1.0 secs

     total energy              =     -16.92091578 Ry
     estimated scf accuracy    <       0.05569362 Ry

     iteration #  2     ecut=    29.00 Ry     beta= 0.70
     Davidson diagonalization with overlap
     ethr =  6.96E-04,  avg # of iterations =  1.0

     total cpu time spent up to now is        1.2 secs

     total energy              =     -16.92264022 Ry
     estimated scf accuracy    <       0.00288436 Ry

     iteration #  3     ecut=    29.00 Ry     beta= 0.70
     Davidson diagonalization with overlap
     ethr =  3.61E-05,  avg # of iterations =  2.4

     total cpu time spent up to now is        1.4 secs

     total energy              =     -16.92327396 Ry
     estimated scf accuracy    <       0.00006605 Ry

     iteration #  4     ecut=    29.00 Ry     beta= 0.70
     Davidson diagonalization with overlap
     ethr =  8.26E-07,  avg # of iterations =  4.1

     total cpu time spent up to now is        1.7 secs

     total energy              =     -16.92333397 Ry
     estimated scf accuracy    <       0.00000053 Ry

     iteration #  5     ecut=    29.00 Ry     beta= 0.70
     Davidson diagonalization with overlap
     ethr =  6.59E-09,  avg # of iterations =  6.6

     total cpu time spent up to now is        2.1 secs

     total energy              =     -16.92333607 Ry
     estimated scf accuracy    <       0.00000007 Ry

     iteration #  6     ecut=    29.00 Ry     beta= 0.70
     Davidson diagonalization with overlap
     ethr =  8.39E-10,  avg # of iterations =  2.2

     total cpu time spent up to now is        2.3 secs

     total energy              =     -16.92333608 Ry
     estimated scf accuracy    <          4.0E-09 Ry

     iteration #  7     ecut=    29.00 Ry     beta= 0.70
     Davidson diagonalization with overlap
     ethr =  4.98E-11,  avg # of iterations =  3.9

     total cpu time spent up to now is        2.6 secs

     total energy              =     -16.92333608 Ry
     estimated scf accuracy    <          5.5E-10 Ry

     iteration #  8     ecut=    29.00 Ry     beta= 0.70
     Davidson diagonalization with overlap
     ethr =  6.83E-12,  avg # of iterations =  2.6

     total cpu time spent up to now is        2.9 secs

     total energy              =     -16.92333608 Ry
     estimated scf accuracy    <          5.2E-12 Ry

     iteration #  9     ecut=    29.00 Ry     beta= 0.70
     Davidson diagonalization with overlap
     ethr =  1.00E-13,  avg # of iterations =  5.1

     total cpu time spent up to now is        3.2 secs

     End of self-consistent calculation

          k = 0.0000 0.0000 0.0000 (   725 PWs)   bands (ev):

    -5.6670   6.4256   6.4256   6.4256

          k =-0.1250 0.1250-0.1250 (   700 PWs)   bands (ev):

    -5.4597   4.8164   6.1303   6.1303

          k =-0.2500 0.2500-0.2500 (   697 PWs)   bands (ev):

    -4.8545   2.4586   5.6519   5.6519

          k =-0.3750 0.3750-0.3750 (   697 PWs)   bands (ev):

    -3.9443   0.4074   5.3207   5.3207

          k = 0.5000-0.5000 0.5000 (   700 PWs)   bands (ev):

    -3.2902  -0.6363   5.2077   5.2077

          k = 0.0000 0.2500 0.0000 (   697 PWs)   bands (ev):

    -5.3899   5.1042   5.5999   5.5999

          k =-0.1250 0.3750-0.1250 (   695 PWs)   bands (ev):

    -4.9138   3.1808   5.0795   5.1667

          k =-0.2500 0.5000-0.2500 (   703 PWs)   bands (ev):

    -4.0848   1.0864   4.5674   4.8083

          k = 0.6250-0.3750 0.6250 (   707 PWs)   bands (ev):

    -3.2039  -0.4057   4.1138   4.8350

          k = 0.5000-0.2500 0.5000 (   698 PWs)   bands (ev):

    -3.4548  -0.0268   3.9264   5.1382

          k = 0.3750-0.1250 0.3750 (   699 PWs)   bands (ev):

    -4.3966   1.7569   4.0744   5.6395

          k = 0.2500 0.0000 0.2500 (   694 PWs)   bands (ev):

    -5.1182   3.7292   4.7609   6.1297

          k = 0.0000 0.5000 0.0000 (   713 PWs)   bands (ev):

    -4.5683   2.9049   4.4977   4.4977

          k =-0.1250 0.6250-0.1250 (   699 PWs)   bands (ev):

    -3.8467   1.4577   3.7042   4.1749

          k = 0.7500-0.2500 0.7500 (   701 PWs)   bands (ev):

    -2.9025  -0.0136   2.8272   4.1791

          k = 0.6250-0.1250 0.6250 (   700 PWs)   bands (ev):

    -2.6921  -0.2794   2.3590   4.5041

          k = 0.5000 0.0000 0.5000 (   688 PWs)   bands (ev):

    -3.5891   0.9049   2.5984   5.0738

          k = 0.0000 0.7500 0.0000 (   700 PWs)   bands (ev):

    -3.2352   0.6467   3.7699   3.7699

          k = 0.8750-0.1250 0.8750 (   704 PWs)   bands (ev):

    -2.3225  -0.4543   2.9203   3.6929

          k = 0.7500 0.0000 0.7500 (   706 PWs)   bands (ev):

    -1.8701  -0.8608   2.0337   3.9553

          k = 0.0000-1.0000 0.0000 (   692 PWs)   bands (ev):

    -1.4574  -1.4574   3.5207   3.5207

          k =-0.2500 0.5000 0.0000 (   700 PWs)   bands (ev):

    -4.3165   2.1128   3.6576   4.9724

          k = 0.6250-0.3750 0.8750 (   698 PWs)   bands (ev):

    -3.4120   0.5325   3.0463   4.4581

          k = 0.5000-0.2500 0.7500 (   702 PWs)   bands (ev):

    -2.7439  -0.4348   2.9197   4.2224

          k = 0.7500-0.2500 1.0000 (   691 PWs)   bands (ev):

    -3.0321   0.4247   2.9968   3.6093

          k = 0.6250-0.1250 0.8750 (   708 PWs)   bands (ev):

    -2.1389  -0.5603   2.2830   3.4044

          k = 0.5000 0.0000 0.7500 (   701 PWs)   bands (ev):

    -2.4956  -0.1924   2.1122   3.7886

          k =-0.2500-1.0000 0.0000 (   706 PWs)   bands (ev):

    -1.3757  -1.3757   2.9395   2.9395

          k =-0.5000-1.0000 0.0000 (   700 PWs)   bands (ev):

    -1.2854  -1.2854   2.4913   2.4913

     highest occupied level (ev):     6.4256

!    total energy              =     -16.92333608 Ry
     estimated scf accuracy    <          5.9E-13 Ry

     The total energy is the sum of the following terms:
     one-electron contribution =       5.10095159 Ry
     hartree contribution      =       1.08004301 Ry
     xc contribution           =      -6.20457209 Ry
     ewald contribution        =     -16.89975859 Ry

     convergence has been achieved in   9 iterations

     Forces acting on atoms (cartesian axes, Ry/au):

     atom    1 type  1   force =    -0.00000000   -0.00000000    0.00000000
     atom    2 type  1   force =     0.00000000    0.00000000    0.00000000

     Total force =     0.000000     Total SCF correction =     0.000000


     Computing stress (Cartesian axis) and pressure

          total   stress  (Ry/bohr**3)                   (kbar)     P=       37.41
   0.00025433  -0.00000000  -0.00000000           37.41       -0.00       -0.00
  -0.00000000   0.00025433   0.00000000           -0.00       37.41        0.00
  -0.00000000   0.00000000   0.00025433           -0.00        0.00       37.41


     Writing all to output data dir /fastscratch/tsievers/QE_TMP_DIR/silicon_29.save/

     init_run     :      0.42s CPU      0.43s WALL (       1 calls)
     electrons    :      2.63s CPU      2.69s WALL (       1 calls)
     forces       :      0.06s CPU      0.06s WALL (       1 calls)
     stress       :      0.21s CPU      0.21s WALL (       1 calls)

     Called by init_run:
     wfcinit      :      0.23s CPU      0.23s WALL (       1 calls)
     potinit      :      0.02s CPU      0.02s WALL (       1 calls)
     hinit0       :      0.17s CPU      0.18s WALL (       1 calls)

     Called by electrons:
     c_bands      :      2.15s CPU      2.20s WALL (      10 calls)
     sum_band     :      0.31s CPU      0.32s WALL (      10 calls)
     v_of_rho     :      0.17s CPU      0.18s WALL (      10 calls)
     mix_rho      :      0.01s CPU      0.01s WALL (      10 calls)

     Called by c_bands:
     init_us_2    :      0.17s CPU      0.17s WALL (     667 calls)
     init_us_2:cp :      0.17s CPU      0.17s WALL (     667 calls)
     cegterg      :      1.84s CPU      1.87s WALL (     290 calls)

     Called by *egterg:
     cdiaghg      :      0.03s CPU      0.04s WALL (    1188 calls)
     h_psi        :      1.84s CPU      1.87s WALL (    1246 calls)
     g_psi        :      0.01s CPU      0.01s WALL (     927 calls)

     Called by h_psi:
     h_psi:calbec :      0.15s CPU      0.16s WALL (    1246 calls)
     vloc_psi     :      1.51s CPU      1.54s WALL (    1246 calls)
     add_vuspsi   :      0.16s CPU      0.17s WALL (    1246 calls)

     General routines
     calbec       :      0.17s CPU      0.18s WALL (    1391 calls)
     fft          :      0.15s CPU      0.15s WALL (     125 calls)
     ffts         :      0.00s CPU      0.00s WALL (      10 calls)
     fftw         :      1.37s CPU      1.39s WALL (    9520 calls)

     Parallel routines

     PWSCF        :      3.37s CPU      3.60s WALL


   This run was terminated on:  14:56:29   7Feb2022            

=------------------------------------------------------------------------------=
   JOB DONE.
=------------------------------------------------------------------------------=
