Module for intel-oneAPI 2021.4 loaded.
 
:: initializing oneAPI environment ...
   2967075: BASH_VERSION = 4.4.20(1)-release
:: advisor -- latest
:: ccl -- latest
:: clck -- latest
:: compiler -- latest
:: dal -- latest
:: debugger -- latest
:: dev-utilities -- latest
:: dnnl -- latest
:: dpcpp-ct -- latest
:: dpl -- latest
:: inspector -- latest
:: intelpython -- latest
:: ipp -- latest
:: ippcp -- latest
:: ipp -- latest
:: itac -- latest
:: LPOT -- latest
:: mkl -- latest
:: modelzoo -- latest
:: mpi -- latest
:: pytorch -- latest
:: tbb -- latest
:: tensorflow -- latest
:: vpl -- latest
:: vtune -- latest
:: oneAPI environment initialized ::
 

     Program PWSCF v.7.0 starts on 15Jun2022 at 19:57:44 

     This program is part of the open-source Quantum ESPRESSO suite
     for quantum simulation of materials; please cite
         "P. Giannozzi et al., J. Phys.:Condens. Matter 21 395502 (2009);
         "P. Giannozzi et al., J. Phys.:Condens. Matter 29 465901 (2017);
         "P. Giannozzi et al., J. Chem. Phys. 152 154105 (2020);
          URL http://www.quantum-espresso.org", 
     in publications or presentations arising from this work. More details at
     http://www.quantum-espresso.org/quote

     Parallel version (MPI), running on     1 processors

     MPI processes distributed on     1 nodes
     24591 MiB available memory on the printing compute node when the environment starts
 
     Reading input from in_files_singlecore/TaS2_bench_intel_singlecore_2.scf

     Current dimensions of program PWSCF are:
     Max number of different atomic species (ntypx) = 10
     Max number of k-points (npk) =  40000
     Max angular momentum in pseudopotentials (lmaxx) =  4

     Subspace diagonalization in iterative solution of the eigenvalue problem:
     a serial algorithm will be used

 
     G-vector sticks info
     --------------------
     sticks:   dense  smooth     PW     G-vecs:    dense   smooth      PW
     Sum       10165   10165   2653              1222357  1222357  163209
 
     Using Slab Decomposition
 


     bravais-lattice index     =            4
     lattice parameter (alat)  =      19.2005  a.u.
     unit-cell volume          =    9049.9364 (a.u.)^3
     number of atoms/cell      =           27
     number of atomic types    =            2
     number of electrons       =       153.00
     number of Kohn-Sham states=           92
     kinetic-energy cutoff     =     100.0000  Ry
     charge density cutoff     =     400.0000  Ry
     scf convergence threshold =      1.0E-15
     mixing beta               =       0.7000
     number of iterations used =            8  plain     mixing
     Exchange-correlation= SLA-PW-PBX-PBC
                           (   1   4   3   4   0   0   0)

     celldm(1)=  19.200493  celldm(2)=   0.000000  celldm(3)=   1.476311
     celldm(4)=   0.000000  celldm(5)=   0.000000  celldm(6)=   0.000000

     crystal axes: (cart. coord. in units of alat)
               a(1) = (   1.000000   0.000000   0.000000 )  
               a(2) = (  -0.500000   0.866025   0.000000 )  
               a(3) = (   0.000000   0.000000   1.476311 )  

     reciprocal axes: (cart. coord. in units 2 pi/alat)
               b(1) = (  1.000000  0.577350  0.000000 )  
               b(2) = (  0.000000  1.154701  0.000000 )  
               b(3) = (  0.000000  0.000000  0.677364 )  


     PseudoPot. # 1 for Ta read from file:
     ./pseudos/Ta.pbe-hgh.UPF
     MD5 check sum: 129c51a9a4223465c43ca8d238d17e53
     Pseudo is Norm-conserving, Zval =  5.0
     Generated in analytical, separable form
     Using radial grid of 1273 points,  6 beta functions with: 
                l(1) =   0
                l(2) =   0
                l(3) =   1
                l(4) =   1
                l(5) =   2
                l(6) =   2

     PseudoPot. # 2 for S  read from file:
     ./pseudos/S.pbe-hgh.UPF
     MD5 check sum: 3a21e384b95a7cc84d045d3bcc0c4ba8
     Pseudo is Norm-conserving, Zval =  6.0
     Generated in analytical, separable form
     Using radial grid of 1151 points,  3 beta functions with: 
                l(1) =   0
                l(2) =   0
                l(3) =   1

     atomic species   valence    mass     pseudopotential
        Ta             5.00   180.94788     Ta( 1.00)
        S              6.00    32.06500     S ( 1.00)

     12 Sym. Ops. (no inversion) found



   Cartesian axes

     site n.     atom                  positions (alat units)
         1           Ta  tau(   1) = (   0.5000000   0.4780447   0.7381553  )
         2           Ta  tau(   2) = (   0.3360011   0.1939903   0.7381553  )
         3           Ta  tau(   3) = (   0.6639989   0.1939903   0.7381553  )
         4           Ta  tau(   4) = (   0.0000000   0.7760728   0.7381553  )
         5           Ta  tau(   5) = (  -0.1720988   0.4779890   0.7381553  )
         6           Ta  tau(   6) = (   0.1720988   0.4779890   0.7381553  )
         7           Ta  tau(   7) = (   0.3390981   0.7731287   0.7381553  )
         8           Ta  tau(   8) = (  -0.3390981   0.7731287   0.7381553  )
         9           Ta  tau(   9) = (   0.0000000   0.1857935   0.7381553  )
        10           S   tau(  10) = (   0.1664686   0.6734609   0.5852802  )
        11           S   tau(  11) = (   0.1664686   0.6734609   0.8910304  )
        12           S   tau(  12) = (  -0.1664686   0.6734609   0.5852802  )
        13           S   tau(  13) = (  -0.1664686   0.6734609   0.8910304  )
        14           S   tau(  14) = (   0.0000000   0.3851289   0.5852802  )
        15           S   tau(  15) = (   0.0000000   0.3851289   0.8910304  )
        16           S   tau(  16) = (   0.6658078   0.3844043   0.5792057  )
        17           S   tau(  17) = (   0.6658078   0.3844043   0.8971049  )
        18           S   tau(  18) = (   0.3341922   0.3844043   0.5792057  )
        19           S   tau(  19) = (   0.3341922   0.3844043   0.8971049  )
        20           S   tau(  20) = (   0.5000000   0.0972168   0.5792057  )
        21           S   tau(  21) = (   0.5000000   0.0972168   0.8971049  )
        22           S   tau(  22) = (   0.5000000   0.6708099   0.5812241  )
        23           S   tau(  23) = (   0.5000000   0.6708099   0.8950865  )
        24           S   tau(  24) = (   0.1690616   0.0976077   0.5812241  )
        25           S   tau(  25) = (   0.1690616   0.0976077   0.8950865  )
        26           S   tau(  26) = (   0.8309384   0.0976077   0.5812241  )
        27           S   tau(  27) = (   0.8309384   0.0976077   0.8950865  )

     number of k points=    19  Fermi-Dirac smearing, width (Ry)=  0.0050
                       cart. coord. in units 2pi/alat
        k(    1) = (   0.0000000   0.0000000   0.0000000), wk =   0.0138889
        k(    2) = (   0.0000000   0.0962250   0.0000000), wk =   0.0833333
        k(    3) = (   0.0000000   0.1924501   0.0000000), wk =   0.0833333
        k(    4) = (   0.0000000   0.2886751   0.0000000), wk =   0.0833333
        k(    5) = (   0.0000000   0.3849002   0.0000000), wk =   0.0833333
        k(    6) = (   0.0000000   0.4811252   0.0000000), wk =   0.0833333
        k(    7) = (   0.0000000  -0.5773503   0.0000000), wk =   0.0416667
        k(    8) = (   0.0833333   0.1443376   0.0000000), wk =   0.0833333
        k(    9) = (   0.0833333   0.2405626   0.0000000), wk =   0.1666667
        k(   10) = (   0.0833333   0.3367877   0.0000000), wk =   0.1666667
        k(   11) = (   0.0833333   0.4330127   0.0000000), wk =   0.1666667
        k(   12) = (   0.0833333   0.5292377   0.0000000), wk =   0.1666667
        k(   13) = (   0.1666667   0.2886751   0.0000000), wk =   0.0833333
        k(   14) = (   0.1666667   0.3849002   0.0000000), wk =   0.1666667
        k(   15) = (   0.1666667   0.4811252   0.0000000), wk =   0.1666667
        k(   16) = (   0.1666667   0.5773503   0.0000000), wk =   0.0833333
        k(   17) = (   0.2500000   0.4330127   0.0000000), wk =   0.0833333
        k(   18) = (   0.2500000   0.5292377   0.0000000), wk =   0.1666667
        k(   19) = (   0.3333333   0.5773503   0.0000000), wk =   0.0277778

     Dense  grid:  1222357 G-vectors     FFT dimensions: ( 125, 125, 192)

     Estimated max dynamical RAM per process >       6.61 GB

     Initial potential from superposition of free atoms

     starting charge     134.9924, renormalised to     153.0000

     negative rho (up, down):  4.640E-05 0.000E+00
forrtl: severe (174): SIGSEGV, segmentation fault occurred
Image              PC                Routine            Line        Source             
pw.x               000000000109D99A  Unknown               Unknown  Unknown
libpthread-2.27.s  00007FCE00B94980  Unknown               Unknown  Unknown
pw.x               00000000007F3AAB  gradcorr_                  10  gradcorr.f90
pw.x               0000000000629648  v_xc_                     585  v_of_rho.f90
pw.x               000000000061E4E9  v_of_rho_                  69  v_of_rho.f90
pw.x               0000000000544C25  potinit_                  239  potinit.f90
pw.x               0000000000494B34  init_run_                 144  init_run.f90
pw.x               0000000000589C13  run_pwscf_                139  run_pwscf.f90
pw.x               000000000040734B  MAIN__                     85  pwscf.f90
pw.x               00000000004071C2  Unknown               Unknown  Unknown
libc-2.27.so       00007FCE00414C87  __libc_start_main     Unknown  Unknown
pw.x               00000000004070AA  Unknown               Unknown  Unknown
Command exited with non-zero status 174
real 4.45
user 3.28
sys 0.53
