Module for gcc 10.2:
(GNU C/C++/FORTRAN compilers v10.2.0) - loaded.
Module for OpenMPI 4.1.0-gcc10.2-infiniband loaded.
Module for OpenBLAS v.0.3.20 - loaded.

     Program PWSCF v.7.0 starts on  4Jun2022 at 12:54:27 

     This program is part of the open-source Quantum ESPRESSO suite
     for quantum simulation of materials; please cite
         "P. Giannozzi et al., J. Phys.:Condens. Matter 21 395502 (2009);
         "P. Giannozzi et al., J. Phys.:Condens. Matter 29 465901 (2017);
         "P. Giannozzi et al., J. Chem. Phys. 152 154105 (2020);
          URL http://www.quantum-espresso.org", 
     in publications or presentations arising from this work. More details at
     http://www.quantum-espresso.org/quote

     Parallel version (MPI), running on    24 processors

     MPI processes distributed on     2 nodes
     R & G space division:  proc/nbgrp/npool/nimage =      24
     2577 MiB available memory on the printing compute node when the environment starts

     Reading input from in_files/silicon_bench_openblas_n_procs_24_5.scf

     Current dimensions of program PWSCF are:
     Max number of different atomic species (ntypx) = 10
     Max number of k-points (npk) =  40000
     Max angular momentum in pseudopotentials (lmaxx) =  4

     Subspace diagonalization in iterative solution of the eigenvalue problem:
     a serial algorithm will be used


     Parallelization info
     --------------------
     sticks:   dense  smooth     PW     G-vecs:    dense   smooth      PW
     Min          41      41     12                  868      868     143
     Max          42      42     13                  871      871     146
     Sum        1003    1003    301                20875    20875    3479

     Using Slab Decomposition



     bravais-lattice index     =            2
     lattice parameter (alat)  =      10.2000  a.u.
     unit-cell volume          =     265.3020 (a.u.)^3
     number of atoms/cell      =            2
     number of atomic types    =            1
     number of electrons       =         8.00
     number of Kohn-Sham states=            4
     kinetic-energy cutoff     =      70.0000  Ry
     charge density cutoff     =     280.0000  Ry
     scf convergence threshold =      1.0E-12
     mixing beta               =       0.7000
     number of iterations used =            8  plain     mixing
     Exchange-correlation= PBE
                           (   1   4   3   4   0   0   0)

     celldm(1)=  10.200000  celldm(2)=   0.000000  celldm(3)=   0.000000
     celldm(4)=   0.000000  celldm(5)=   0.000000  celldm(6)=   0.000000

     crystal axes: (cart. coord. in units of alat)
               a(1) = (  -0.500000   0.000000   0.500000 )  
               a(2) = (   0.000000   0.500000   0.500000 )  
               a(3) = (  -0.500000   0.500000   0.000000 )  

     reciprocal axes: (cart. coord. in units 2 pi/alat)
               b(1) = ( -1.000000 -1.000000  1.000000 )  
               b(2) = (  1.000000  1.000000  1.000000 )  
               b(3) = ( -1.000000  1.000000 -1.000000 )  


     PseudoPot. # 1 for Si read from file:
     ./pseudos/Si_pbe_v0.4.1.nc.sr.upf
     MD5 check sum: 02fab3f35e82123ef5bf1cb05d5b1a5e
     Pseudo is Norm-conserving + core correction, Zval =  4.0
     Generated using ONCVPSP code by D. R. Hamann
     Using radial grid of 1510 points,  6 beta functions with: 
                l(1) =   0
                l(2) =   0
                l(3) =   1
                l(4) =   1
                l(5) =   2
                l(6) =   2

     atomic species   valence    mass     pseudopotential
        Si             4.00    28.08600     Si( 1.00)

     48 Sym. Ops., with inversion, found (24 have fractional translation)



   Cartesian axes

     site n.     atom                  positions (alat units)
         1           Si  tau(   1) = (   0.0000000   0.0000000   0.0000000  )
         2           Si  tau(   2) = (   0.2500000   0.2500000   0.2500000  )

     number of k points=  1661

     Number of k-points >= 100: set verbosity='high' to print them.

     Dense  grid:    20875 G-vectors     FFT dimensions: (  40,  40,  40)

     Estimated max dynamical RAM per process >      13.07 MB

     Estimated total dynamical RAM >     313.77 MB

     Initial potential from superposition of free atoms

     starting charge       7.9988, renormalised to       8.0000
     Starting wfcs are    8 randomized atomic wfcs

     total cpu time spent up to now is       22.6 secs

     Self-consistent Calculation

     iteration #  1     ecut=    70.00 Ry     beta= 0.70
     Davidson diagonalization with overlap
     ethr =  1.00E-02,  avg # of iterations =  2.0

     Threshold (ethr) on eigenvalues was too large:
     Diagonalizing with lowered threshold

     Davidson diagonalization with overlap
     ethr =  5.86E-04,  avg # of iterations =  2.0

     total cpu time spent up to now is      103.3 secs

     total energy              =     -16.92149477 Ry
     estimated scf accuracy    <       0.05529513 Ry

     iteration #  2     ecut=    70.00 Ry     beta= 0.70
     Davidson diagonalization with overlap
     ethr =  6.91E-04,  avg # of iterations =  1.0

     total cpu time spent up to now is      133.5 secs

     total energy              =     -16.92319870 Ry
     estimated scf accuracy    <       0.00291012 Ry

     iteration #  3     ecut=    70.00 Ry     beta= 0.70
     Davidson diagonalization with overlap
     ethr =  3.64E-05,  avg # of iterations =  2.3

     total cpu time spent up to now is      177.0 secs

     total energy              =     -16.92386789 Ry
     estimated scf accuracy    <       0.00006634 Ry

     iteration #  4     ecut=    70.00 Ry     beta= 0.70
     Davidson diagonalization with overlap
     ethr =  8.29E-07,  avg # of iterations =  5.1

     total cpu time spent up to now is      242.7 secs

     total energy              =     -16.92395273 Ry
     estimated scf accuracy    <       0.00000026 Ry

     iteration #  5     ecut=    70.00 Ry     beta= 0.70
     Davidson diagonalization with overlap
     ethr =  3.28E-09,  avg # of iterations =  6.5

     total cpu time spent up to now is      323.1 secs

     total energy              =     -16.92395445 Ry
     estimated scf accuracy    <          8.4E-09 Ry

     iteration #  6     ecut=    70.00 Ry     beta= 0.70
     Davidson diagonalization with overlap
     ethr =  1.06E-10,  avg # of iterations =  3.7

     total cpu time spent up to now is      375.8 secs

     total energy              =     -16.92395445 Ry
     estimated scf accuracy    <          6.7E-10 Ry

     iteration #  7     ecut=    70.00 Ry     beta= 0.70
     Davidson diagonalization with overlap
     ethr =  8.41E-12,  avg # of iterations =  3.5

     total cpu time spent up to now is      427.3 secs

     total energy              =     -16.92395445 Ry
     estimated scf accuracy    <          1.2E-10 Ry

     iteration #  8     ecut=    70.00 Ry     beta= 0.70
     Davidson diagonalization with overlap
     ethr =  1.53E-12,  avg # of iterations =  2.3

     total cpu time spent up to now is      467.2 secs

     End of self-consistent calculation

     Number of k-points >= 100: set verbosity='high' to print the bands.

     highest occupied level (ev):     6.4228

!    total energy              =     -16.92395445 Ry
     estimated scf accuracy    <          1.1E-13 Ry

     The total energy is the sum of the following terms:
     one-electron contribution =       5.10086349 Ry
     hartree contribution      =       1.07923926 Ry
     xc contribution           =      -6.20429863 Ry
     ewald contribution        =     -16.89975857 Ry

     convergence has been achieved in   8 iterations

     Writing all to output data dir /fastscratch/tsievers/QE_TMP_DIR/silicon_bench_openblas_n_procs_24_5.save/

     init_run     :     14.21s CPU     22.42s WALL (       1 calls)
     electrons    :    274.75s CPU    444.58s WALL (       1 calls)

     Called by init_run:
     wfcinit      :     14.01s CPU     22.19s WALL (       1 calls)
     potinit      :      0.02s CPU      0.02s WALL (       1 calls)
     hinit0       :      0.16s CPU      0.17s WALL (       1 calls)

     Called by electrons:
     c_bands      :    245.53s CPU    397.68s WALL (       9 calls)
     sum_band     :     29.12s CPU     46.73s WALL (       9 calls)
     v_of_rho     :      0.08s CPU      0.10s WALL (       9 calls)
     mix_rho      :      0.01s CPU      0.03s WALL (       9 calls)

     Called by c_bands:
     init_us_2    :      1.06s CPU      1.69s WALL (   31559 calls)
     init_us_2:cp :      1.02s CPU      1.64s WALL (   31559 calls)
     cegterg      :    239.53s CPU    388.11s WALL (   14949 calls)

     Called by *egterg:
     cdiaghg      :      1.50s CPU      2.43s WALL (   60416 calls)
     h_psi        :    215.95s CPU    349.37s WALL (   63738 calls)
     g_psi        :      0.11s CPU      0.18s WALL (   47128 calls)

     Called by h_psi:
     h_psi:calbec :     30.12s CPU     48.94s WALL (   63738 calls)
     vloc_psi     :    184.71s CPU    298.64s WALL (   63738 calls)
     add_vuspsi   :      0.84s CPU      1.36s WALL (   63738 calls)

     General routines
     calbec       :     30.03s CPU     48.81s WALL (   63738 calls)
     fft          :      0.21s CPU      0.24s WALL (      91 calls)
     ffts         :      0.01s CPU      0.01s WALL (       9 calls)
     fftw         :    211.64s CPU    341.88s WALL (  491726 calls)

     Parallel routines

     PWSCF        :   5m 7.42s CPU   8m44.18s WALL


   This run was terminated on:  13: 3:11   4Jun2022            

=------------------------------------------------------------------------------=
   JOB DONE.
=------------------------------------------------------------------------------=
real 526.09
user 6426.33
sys 4035.74
