[Molden Format]
[FREQ]
    0.00
    0.00
    0.00
   39.87
   39.87
   62.31
   62.31
   66.10
   66.75
   66.75
   69.18
   69.76
   74.23
   74.23
   82.08
   85.25
   85.35
   89.45
   89.45
   89.51
   91.84
   91.84
   91.95
   91.95
  109.45
  146.61
  146.61
  194.87
  210.06
  210.06
  219.80
  219.80
  229.21
  229.21
  229.48
  247.97
  247.97
  250.46
  252.98
  252.98
  255.72
  271.21
  271.21
  272.81
  274.25
  274.65
  274.65
  274.94
  275.69
  275.69
  280.65
  281.83
  281.83
  284.99
  284.99
  285.75
  285.75
  286.51
  286.71
  287.37
  287.37
  291.71
  295.51
  298.02
  298.02
  298.66
  306.01
  306.01
  311.10
  311.10
  317.31
  351.26
  353.68
  353.68
  356.35
  357.70
  357.70
  359.62
  359.62
  361.46
  374.31
[FR-COORD]
   Ta          9.60025        9.17869       14.17295
   Ta          6.45139        3.72471       14.17295
   Ta         12.74911        3.72471       14.17295
   Ta          0.00000       14.90098       14.17295
   Ta         -3.30438        9.17762       14.17295
   Ta          3.30438        9.17762       14.17295
   Ta          6.51085       14.84445       14.17295
   Ta         -6.51085       14.84445       14.17295
   Ta          0.00000        3.56733       14.17295
   S           3.19628       12.93078       11.23767
   S           3.19628       12.93078       17.10822
   S          -3.19628       12.93078       11.23767
   S          -3.19628       12.93078       17.10822
   S           0.00000        7.39467       11.23767
   S           0.00000        7.39467       17.10822
   S          12.78384        7.38075       11.12103
   S          12.78384        7.38075       17.22486
   S           6.41666        7.38075       11.12103
   S           6.41666        7.38075       17.22486
   S           9.60025        1.86661       11.12103
   S           9.60025        1.86661       17.22486
   S           9.60025       12.87988       11.15979
   S           9.60025       12.87988       17.18610
   S           3.24607        1.87412       11.15979
   S           3.24607        1.87412       17.18610
   S          15.95443        1.87412       11.15979
   S          15.95443        1.87412       17.18610
[FR-NORM-COORD]
 vibration     1
   0.10485  -0.16138   0.00005
   0.10485  -0.16138   0.00005
   0.10485  -0.16138   0.00005
   0.10485  -0.16138   0.00005
   0.10485  -0.16138   0.00005
   0.10485  -0.16138   0.00005
   0.10485  -0.16138   0.00005
   0.10485  -0.16138   0.00005
   0.10485  -0.16138   0.00005
   0.10485  -0.16138   0.00005
   0.10485  -0.16138   0.00005
   0.10485  -0.16138   0.00005
   0.10485  -0.16138   0.00005
   0.10485  -0.16138   0.00005
   0.10485  -0.16138   0.00005
   0.10485  -0.16138   0.00005
   0.10485  -0.16138   0.00005
   0.10485  -0.16138   0.00005
   0.10485  -0.16138   0.00005
   0.10485  -0.16138   0.00005
   0.10485  -0.16138   0.00005
   0.10485  -0.16138   0.00005
   0.10485  -0.16138   0.00005
   0.10485  -0.16138   0.00005
   0.10485  -0.16138   0.00005
   0.10485  -0.16138   0.00005
   0.10485  -0.16138   0.00005
 vibration     2
   0.16089   0.10453   0.01503
   0.16089   0.10453   0.01503
   0.16089   0.10453   0.01503
   0.16089   0.10453   0.01503
   0.16089   0.10453   0.01503
   0.16089   0.10453   0.01503
   0.16089   0.10453   0.01503
   0.16089   0.10453   0.01503
   0.16089   0.10453   0.01503
   0.16089   0.10453   0.01503
   0.16089   0.10453   0.01503
   0.16089   0.10453   0.01503
   0.16089   0.10453   0.01503
   0.16089   0.10453   0.01503
   0.16089   0.10453   0.01503
   0.16089   0.10453   0.01503
   0.16089   0.10453   0.01503
   0.16089   0.10453   0.01503
   0.16089   0.10453   0.01503
   0.16089   0.10453   0.01503
   0.16089   0.10453   0.01503
   0.16089   0.10453   0.01503
   0.16089   0.10453   0.01503
   0.16089   0.10453   0.01503
   0.16089   0.10453   0.01503
   0.16089   0.10453   0.01503
   0.16089   0.10453   0.01503
 vibration     3
  -0.01263  -0.00815   0.19186
  -0.01263  -0.00815   0.19186
  -0.01263  -0.00815   0.19186
  -0.01263  -0.00815   0.19186
  -0.01263  -0.00815   0.19186
  -0.01263  -0.00815   0.19186
  -0.01263  -0.00815   0.19186
  -0.01263  -0.00815   0.19186
  -0.01263  -0.00815   0.19186
  -0.01263  -0.00815   0.19186
  -0.01263  -0.00815   0.19186
  -0.01263  -0.00815   0.19186
  -0.01263  -0.00815   0.19186
  -0.01263  -0.00815   0.19186
  -0.01263  -0.00815   0.19186
  -0.01263  -0.00815   0.19186
  -0.01263  -0.00815   0.19186
  -0.01263  -0.00815   0.19186
  -0.01263  -0.00815   0.19186
  -0.01263  -0.00815   0.19186
  -0.01263  -0.00815   0.19186
  -0.01263  -0.00815   0.19186
  -0.01263  -0.00815   0.19186
  -0.01263  -0.00815   0.19186
  -0.01263  -0.00815   0.19186
  -0.01263  -0.00815   0.19186
  -0.01263  -0.00815   0.19186
 vibration     4
  -0.33673  -0.00000   0.00000
  -0.20073   0.07852   0.00000
  -0.20073  -0.07852  -0.00000
  -0.11132   0.00000  -0.00000
   0.11822   0.13253  -0.00000
   0.11822  -0.13253   0.00000
   0.09157  -0.21052   0.00000
   0.09157   0.21052   0.00000
   0.45621  -0.00000  -0.00000
  -0.03447   0.00384   0.06569
  -0.03447   0.00384  -0.06569
  -0.03447  -0.00384  -0.06569
  -0.03447  -0.00384   0.06569
  -0.04113  -0.00000  -0.00000
  -0.04113  -0.00000   0.00000
  -0.00894   0.06541   0.14397
  -0.00894   0.06541  -0.14397
  -0.00894  -0.06541  -0.14397
  -0.00894  -0.06541   0.14397
  -0.12223   0.00000  -0.00000
  -0.12223   0.00000   0.00000
   0.13843  -0.00000   0.00000
   0.13843  -0.00000  -0.00000
   0.01879  -0.06908  -0.21805
   0.01879  -0.06908   0.21805
   0.01879   0.06908   0.21805
   0.01879   0.06908  -0.21805
 vibration     5
   0.00000  -0.15540   0.00000
   0.07852  -0.29139   0.00000
  -0.07852  -0.29139   0.00000
   0.00000   0.19473   0.00000
   0.13253  -0.03481   0.00000
  -0.13253  -0.03481  -0.00000
  -0.21052   0.33467   0.00000
   0.21052   0.33467   0.00000
  -0.00000  -0.02997  -0.00000
   0.00385  -0.03891   0.03793
   0.00385  -0.03891  -0.03793
  -0.00384  -0.03891   0.03793
  -0.00384  -0.03891  -0.03793
   0.00000  -0.03225  -0.07586
   0.00000  -0.03225   0.07586
   0.06541  -0.08447   0.08312
   0.06541  -0.08447  -0.08312
  -0.06541  -0.08447   0.08312
  -0.06541  -0.08447  -0.08312
   0.00000   0.02882  -0.16624
   0.00000   0.02882   0.16624
  -0.00000  -0.02109   0.25178
  -0.00000  -0.02109  -0.25178
  -0.06908   0.09855  -0.12589
  -0.06908   0.09855   0.12589
   0.06908   0.09855  -0.12589
   0.06908   0.09855   0.12589
 vibration     6
   0.00000  -0.00000  -0.00000
   0.00000   0.00000  -0.07344
  -0.00000   0.00000   0.07344
  -0.00000   0.00000   0.00000
  -0.00000   0.00000   0.40649
  -0.00000  -0.00000  -0.40649
   0.00000  -0.00000  -0.20632
   0.00000  -0.00000   0.20632
   0.00000   0.00000  -0.00000
  -0.05031   0.08662  -0.22492
   0.05031  -0.08662  -0.22492
  -0.05031  -0.08662   0.22492
   0.05031   0.08662   0.22492
  -0.20034   0.00000  -0.00000
   0.20034  -0.00000  -0.00000
   0.11758   0.04151   0.17700
  -0.11758  -0.04151   0.17700
   0.11758  -0.04151  -0.17700
  -0.11758   0.04151  -0.17700
   0.04569  -0.00000   0.00000
  -0.04569   0.00000   0.00000
   0.11533   0.00000   0.00000
  -0.11533  -0.00000   0.00000
  -0.02082  -0.07861   0.03905
   0.02082   0.07861   0.03905
  -0.02082   0.07861  -0.03905
   0.02082  -0.07861  -0.03905
 vibration     7
  -0.00000  -0.00000  -0.08480
   0.00000  -0.00000   0.04240
  -0.00000   0.00000   0.04240
  -0.00000   0.00000   0.46937
  -0.00000   0.00000  -0.23469
   0.00000   0.00000  -0.23469
   0.00000  -0.00000   0.11912
  -0.00000  -0.00000   0.11912
   0.00000  -0.00000  -0.23824
  -0.08662   0.15033   0.12986
   0.08662  -0.15033   0.12986
   0.08662   0.15033   0.12986
  -0.08662  -0.15033   0.12986
   0.00000   0.00030  -0.25972
  -0.00000  -0.00030  -0.25972
  -0.04150  -0.06965  -0.10219
   0.04150   0.06965  -0.10219
   0.04150  -0.06965  -0.10219
  -0.04150   0.06965  -0.10219
  -0.00000  -0.14154   0.20439
   0.00000   0.14154   0.20439
  -0.00000   0.06620   0.04509
   0.00000  -0.06620   0.04509
   0.07861  -0.06995  -0.02254
  -0.07861   0.06995  -0.02254
  -0.07861  -0.06995  -0.02254
   0.07861   0.06995  -0.02254
 vibration     8
  -0.00000  -0.00000  -0.30128
   0.00000   0.00000  -0.30128
  -0.00000   0.00000  -0.30128
   0.00000   0.00000   0.16578
   0.00000  -0.00000   0.16578
   0.00000  -0.00000   0.16578
  -0.00000   0.00000   0.13575
  -0.00000   0.00000   0.13575
  -0.00000   0.00000   0.13576
   0.00120   0.00069   0.17079
  -0.00120  -0.00069   0.17079
  -0.00120   0.00069   0.17079
   0.00120  -0.00069   0.17079
   0.00000  -0.00139   0.17079
   0.00000   0.00139   0.17079
   0.13378   0.07724  -0.16148
  -0.13378  -0.07724  -0.16148
  -0.13378   0.07724  -0.16148
   0.13378  -0.07724  -0.16148
  -0.00000  -0.15447  -0.16148
  -0.00000   0.15447  -0.16148
  -0.00000   0.13826  -0.01002
  -0.00000  -0.13826  -0.01002
  -0.11974  -0.06913  -0.01002
   0.11974   0.06913  -0.01002
   0.11974  -0.06913  -0.01002
  -0.11974   0.06913  -0.01002
 vibration     9
   0.00000   0.14450  -0.00000
   0.19621  -0.19535  -0.00000
  -0.19621  -0.19535  -0.00000
  -0.00000   0.13110   0.00000
  -0.13534   0.36552   0.00000
   0.13534   0.36552   0.00000
  -0.06153  -0.17788  -0.00000
   0.06153  -0.17788  -0.00000
   0.00000  -0.28445   0.00000
  -0.08776   0.11420  -0.10000
  -0.08776   0.11420   0.10000
   0.08776   0.11420  -0.10000
   0.08776   0.11420   0.10000
  -0.00000  -0.03779   0.20001
  -0.00000  -0.03779  -0.20001
   0.02529  -0.06041   0.09022
   0.02529  -0.06041  -0.09022
  -0.02529  -0.06041   0.09022
  -0.02529  -0.06041  -0.09022
   0.00000  -0.01661  -0.18044
   0.00000  -0.01661   0.18044
   0.00000   0.07006  -0.04586
   0.00000   0.07006   0.04586
   0.05625  -0.02736   0.02293
   0.05625  -0.02736  -0.02293
  -0.05625  -0.02736   0.02293
  -0.05625  -0.02736  -0.02293
 vibration    10
  -0.30864   0.00000   0.00000
   0.03122   0.19621   0.00000
   0.03122  -0.19621   0.00000
   0.44366   0.00000  -0.00000
   0.20924  -0.13534  -0.00000
   0.20924   0.13534  -0.00000
  -0.24893  -0.06153   0.00000
  -0.24893   0.06153   0.00000
  -0.14236  -0.00000   0.00000
   0.01287  -0.08776  -0.17321
   0.01287  -0.08776   0.17321
   0.01287   0.08776   0.17321
   0.01287   0.08776  -0.17321
   0.16487  -0.00000   0.00000
   0.16487  -0.00000  -0.00000
  -0.03121   0.02529   0.15626
  -0.03121   0.02529  -0.15626
  -0.03121  -0.02529  -0.15626
  -0.03121  -0.02529   0.15626
  -0.07501  -0.00000  -0.00000
  -0.07501  -0.00000   0.00000
  -0.05983   0.00000  -0.00000
  -0.05983   0.00000   0.00000
   0.03759   0.05625   0.03972
   0.03759   0.05625  -0.03972
   0.03759  -0.05625  -0.03972
   0.03759  -0.05625   0.03972
 vibration    11
   0.00000   0.45757  -0.00000
  -0.39627  -0.22879  -0.00000
   0.39627  -0.22879  -0.00000
  -0.00000  -0.07729  -0.00000
   0.06693   0.03864  -0.00000
  -0.06693   0.03864  -0.00000
  -0.04730  -0.02731   0.00000
   0.04730  -0.02731   0.00000
   0.00000   0.05461   0.00000
   0.01829   0.01056  -0.03034
   0.01829   0.01056   0.03034
  -0.01829   0.01056  -0.03034
  -0.01829   0.01056   0.03034
  -0.00000  -0.02112  -0.03034
  -0.00000  -0.02112   0.03034
  -0.08184  -0.04725   0.13167
  -0.08184  -0.04725  -0.13167
   0.08184  -0.04725   0.13167
   0.08184  -0.04725  -0.13167
   0.00000   0.09450   0.13167
   0.00000   0.09450  -0.13167
   0.00000   0.14564  -0.09305
   0.00000   0.14564   0.09305
  -0.12613  -0.07282  -0.09305
  -0.12613  -0.07282   0.09305
   0.12613  -0.07282  -0.09305
   0.12613  -0.07282   0.09305
 vibration    12
  -0.00000   0.00000   0.01532
  -0.00000  -0.00000   0.01532
   0.00000  -0.00000   0.01532
   0.00000  -0.00000   0.25433
   0.00000   0.00000   0.25433
  -0.00000   0.00000   0.25433
  -0.00000  -0.00000  -0.27417
   0.00000  -0.00000  -0.27417
  -0.00000   0.00000  -0.27417
  -0.13053  -0.07536   0.09826
   0.13053   0.07536   0.09826
   0.13053  -0.07536   0.09826
  -0.13053   0.07536   0.09826
   0.00000   0.15072   0.09826
  -0.00000  -0.15072   0.09826
   0.06653   0.03841   0.10584
  -0.06653  -0.03841   0.10584
  -0.06653   0.03841   0.10584
   0.06653  -0.03841   0.10584
  -0.00000  -0.07682   0.10584
   0.00000   0.07682   0.10584
  -0.00000  -0.10264  -0.19134
   0.00000   0.10264  -0.19134
   0.08889   0.05132  -0.19134
  -0.08889  -0.05132  -0.19134
  -0.08889   0.05132  -0.19134
   0.08889  -0.05132  -0.19134
 vibration    13
  -0.00000   0.00000  -0.00000
  -0.00000  -0.00000   0.33949
   0.00000  -0.00000  -0.33949
   0.00000  -0.00000   0.00000
   0.00000  -0.00000  -0.08591
  -0.00000   0.00000   0.08591
  -0.00000   0.00000  -0.28719
  -0.00000   0.00000   0.28719
  -0.00000   0.00000   0.00000
  -0.07435  -0.06572  -0.08169
   0.07435   0.06572  -0.08169
  -0.07435   0.06572   0.08169
   0.07435  -0.06572   0.08169
   0.03948  -0.00000   0.00000
  -0.03948   0.00000   0.00000
  -0.02670   0.09593  -0.15168
   0.02670  -0.09593  -0.15168
  -0.02670  -0.09593   0.15168
   0.02670   0.09593   0.15168
  -0.19286   0.00000   0.00000
   0.19286  -0.00000   0.00000
   0.16104   0.00000  -0.00000
  -0.16104  -0.00000  -0.00000
   0.09303  -0.03927   0.23550
  -0.09303   0.03927   0.23550
   0.09303   0.03927  -0.23550
  -0.09303  -0.03927  -0.23550
 vibration    14
  -0.00000  -0.00000  -0.39201
   0.00000   0.00000   0.19601
  -0.00000   0.00000   0.19601
  -0.00000   0.00000   0.09920
   0.00000  -0.00000  -0.04960
   0.00000   0.00000  -0.04960
   0.00000  -0.00000  -0.16581
   0.00000   0.00000  -0.16581
  -0.00000  -0.00000   0.33162
  -0.06572   0.00154  -0.04716
   0.06572  -0.00154  -0.04716
   0.06572   0.00154  -0.04716
  -0.06572  -0.00154  -0.04716
  -0.00000  -0.11229   0.09432
   0.00000   0.11229   0.09432
   0.09593  -0.13747  -0.08757
  -0.09593   0.13747  -0.08757
  -0.09593  -0.13747  -0.08757
   0.09593   0.13747  -0.08757
   0.00000   0.02868   0.17515
  -0.00000  -0.02868   0.17515
  -0.00000   0.07036  -0.27194
   0.00000  -0.07036  -0.27194
  -0.03927   0.13837   0.13597
   0.03927  -0.13837   0.13597
   0.03927   0.13837   0.13597
  -0.03927  -0.13837   0.13597
 vibration    15
  -0.02452   0.00000  -0.00000
   0.01226  -0.02123   0.00000
   0.01226   0.02123  -0.00000
   0.31522  -0.00000   0.00000
  -0.15761   0.27299  -0.00000
  -0.15761  -0.27299   0.00000
  -0.14489   0.25096  -0.00000
  -0.14489  -0.25096  -0.00000
   0.28978  -0.00000   0.00000
   0.10400  -0.18013   0.00000
   0.10400  -0.18013  -0.00000
   0.10400   0.18013  -0.00000
   0.10400   0.18013   0.00000
  -0.20800  -0.00000   0.00000
  -0.20800   0.00000   0.00000
  -0.03399   0.05887   0.00000
  -0.03399   0.05887  -0.00000
  -0.03399  -0.05887  -0.00000
  -0.03399  -0.05887   0.00000
   0.06798  -0.00000   0.00000
   0.06798  -0.00000   0.00000
  -0.16374   0.00000  -0.00000
  -0.16374   0.00000  -0.00000
   0.08187  -0.14180  -0.00000
   0.08187  -0.14180   0.00000
   0.08187   0.14180   0.00000
   0.08187   0.14180  -0.00000
 vibration    16
   0.24015  -0.00000   0.00000
  -0.12007   0.20797  -0.00000
  -0.12007  -0.20797   0.00000
  -0.21863  -0.00000   0.00000
   0.10931  -0.18934  -0.00000
   0.10931   0.18934   0.00000
  -0.13792   0.23888  -0.00000
  -0.13792  -0.23888   0.00000
   0.27583   0.00000   0.00000
  -0.08758   0.15169  -0.00000
  -0.08758   0.15169   0.00000
  -0.08758  -0.15169   0.00000
  -0.08758  -0.15169  -0.00000
   0.17516   0.00000  -0.00000
   0.17516   0.00000   0.00000
   0.05606  -0.09710   0.00000
   0.05606  -0.09710  -0.00000
   0.05606   0.09710  -0.00000
   0.05606   0.09710   0.00000
  -0.11212  -0.00000   0.00000
  -0.11212  -0.00000  -0.00000
  -0.18067   0.00000   0.00000
  -0.18067   0.00000  -0.00000
   0.09033  -0.15646  -0.00000
   0.09033  -0.15646   0.00000
   0.09033   0.15646   0.00000
   0.09033   0.15646  -0.00000
 vibration    17
  -0.00000  -0.06889  -0.00000
   0.05966   0.03445   0.00000
  -0.05966   0.03445   0.00000
   0.00000  -0.09606  -0.00000
   0.08319   0.04803  -0.00000
  -0.08319   0.04803   0.00000
  -0.39899  -0.23036  -0.00000
   0.39899  -0.23036  -0.00000
  -0.00000   0.46071  -0.00000
  -0.08905  -0.05142  -0.12845
  -0.08905  -0.05142   0.12845
   0.08905  -0.05142  -0.12845
   0.08905  -0.05142   0.12845
  -0.00000   0.10283  -0.12845
  -0.00000   0.10283   0.12845
   0.05601   0.03234   0.00997
   0.05601   0.03234  -0.00997
  -0.05601   0.03234   0.00997
  -0.05601   0.03234  -0.00997
   0.00000  -0.06467   0.00997
   0.00000  -0.06467  -0.00997
   0.00000   0.08059   0.12531
   0.00000   0.08059  -0.12531
  -0.06979  -0.04029   0.12531
  -0.06979  -0.04029  -0.12531
   0.06979  -0.04029   0.12531
   0.06979  -0.04029  -0.12531
 vibration    18
  -0.19326   0.00000  -0.00000
   0.13439   0.18921  -0.00000
   0.13439  -0.18921   0.00000
   0.06909  -0.00000  -0.00000
  -0.30329  -0.21497  -0.00000
  -0.30329   0.21497   0.00000
   0.15396   0.00024   0.00000
   0.15396  -0.00024   0.00000
   0.15352   0.00000  -0.00000
   0.06602   0.11475  -0.03905
   0.06602   0.11475   0.03905
   0.06602  -0.11475   0.03905
   0.06602  -0.11475  -0.03905
  -0.13275   0.00000   0.00000
  -0.13275   0.00000  -0.00000
  -0.21934  -0.13189  -0.01156
  -0.21934  -0.13189   0.01156
  -0.21934   0.13189   0.01156
  -0.21934   0.13189  -0.01156
   0.00906  -0.00000   0.00000
   0.00906  -0.00000  -0.00000
   0.11912   0.00000  -0.00000
   0.11912   0.00000   0.00000
   0.15633   0.02149   0.01283
   0.15633   0.02149  -0.01283
   0.15633  -0.02149  -0.01283
   0.15633  -0.02149   0.01283
 vibration    19
   0.00000   0.24363  -0.00000
   0.18919  -0.08405   0.00000
  -0.18919  -0.08405   0.00000
  -0.00000  -0.42740   0.00000
  -0.21498  -0.05504  -0.00000
   0.21498  -0.05504   0.00000
   0.00025   0.15367  -0.00000
  -0.00025   0.15367   0.00000
  -0.00000   0.15410  -0.00000
   0.11475  -0.06649  -0.02255
   0.11475  -0.06649   0.02255
  -0.11475  -0.06649  -0.02255
  -0.11475  -0.06649   0.02255
   0.00000   0.13227   0.04509
   0.00000   0.13227  -0.04509
  -0.13188  -0.06707  -0.00667
  -0.13188  -0.06707   0.00667
   0.13188  -0.06707  -0.00667
   0.13188  -0.06707   0.00667
  -0.00000  -0.29548   0.01335
  -0.00000  -0.29548  -0.01335
  -0.00000   0.16874  -0.01481
  -0.00000   0.16874   0.01481
   0.02149   0.13152   0.00741
   0.02149   0.13152  -0.00741
  -0.02149   0.13152   0.00741
  -0.02149   0.13152  -0.00741
 vibration    20
   0.38640   0.00000  -0.00000
  -0.19320   0.33461  -0.00000
  -0.19320  -0.33461   0.00000
   0.18694  -0.00000   0.00000
  -0.09345   0.16191  -0.00000
  -0.09345  -0.16191   0.00000
   0.08238  -0.14270  -0.00000
   0.08238   0.14270   0.00000
  -0.16479   0.00000  -0.00000
   0.05990  -0.10376   0.00000
   0.05990  -0.10376  -0.00000
   0.05990   0.10376  -0.00000
   0.05990   0.10376   0.00000
  -0.11979   0.00000   0.00000
  -0.11979   0.00000  -0.00000
   0.09497  -0.16446   0.00000
   0.09497  -0.16446  -0.00000
   0.09497   0.16446  -0.00000
   0.09497   0.16446   0.00000
  -0.18991  -0.00000   0.00000
  -0.18991  -0.00000  -0.00000
   0.10271   0.00000  -0.00000
   0.10271   0.00000   0.00000
  -0.05137   0.08896  -0.00000
  -0.05137   0.08896   0.00000
  -0.05137  -0.08896   0.00000
  -0.05137  -0.08896  -0.00000
 vibration    21
  -0.00000  -0.00000  -0.39754
  -0.00000  -0.00000   0.19877
  -0.00000   0.00000   0.19877
   0.00000   0.00000  -0.28630
   0.00000  -0.00000   0.14315
   0.00000   0.00000   0.14315
   0.00000   0.00000   0.19811
   0.00000  -0.00000   0.19811
  -0.00000   0.00000  -0.39622
   0.10193  -0.04400   0.02127
  -0.10193   0.04400   0.02127
  -0.10193  -0.04400   0.02127
   0.10193   0.04400   0.02127
  -0.00000   0.13254  -0.04254
   0.00000  -0.13254  -0.04254
   0.12964  -0.08961  -0.02246
  -0.12964   0.08961  -0.02246
  -0.12964  -0.08961  -0.02246
   0.12964   0.08961  -0.02246
  -0.00000   0.13493   0.04493
   0.00000  -0.13493   0.04493
  -0.00000   0.17772  -0.01483
   0.00000  -0.17772  -0.01483
   0.14652  -0.07606   0.00742
  -0.14652   0.07606   0.00742
  -0.14652  -0.07606   0.00742
   0.14652   0.07606   0.00742
 vibration    22
  -0.00000   0.00000  -0.00000
  -0.00000   0.00000  -0.34428
  -0.00000   0.00000   0.34428
   0.00000   0.00000  -0.00000
   0.00000  -0.00000  -0.24794
  -0.00000  -0.00000   0.24794
   0.00000   0.00000  -0.34314
   0.00000  -0.00000   0.34314
  -0.00000  -0.00000  -0.00000
  -0.07369  -0.10193  -0.03684
   0.07369   0.10193  -0.03684
  -0.07369   0.10193   0.03684
   0.07369  -0.10193   0.03684
   0.10285   0.00000  -0.00000
  -0.10285  -0.00000  -0.00000
  -0.06008  -0.12964   0.03891
   0.06008   0.12964   0.03891
  -0.06008   0.12964  -0.03891
   0.06008  -0.12964  -0.03891
   0.16446   0.00000   0.00000
  -0.16446  -0.00000   0.00000
   0.16065   0.00000  -0.00000
  -0.16065  -0.00000  -0.00000
  -0.09313  -0.14652  -0.01285
   0.09313   0.14652  -0.01285
  -0.09313   0.14652   0.01285
   0.09313  -0.14652   0.01285
 vibration    23
  -0.00000  -0.35801   0.00000
  -0.11059  -0.16647  -0.00000
   0.11059  -0.16647   0.00000
   0.00000  -0.02103   0.00000
  -0.11620   0.18023  -0.00000
   0.11620   0.18023   0.00000
   0.20506  -0.00188  -0.00000
  -0.20506  -0.00188   0.00000
  -0.00000   0.35329   0.00000
   0.09496   0.10891  -0.00618
   0.09496   0.10891   0.00618
  -0.09496   0.10891  -0.00618
  -0.09496   0.10891   0.00618
   0.00000   0.27338   0.01236
   0.00000   0.27338  -0.01236
   0.04963  -0.12824  -0.00697
   0.04963  -0.12824   0.00697
  -0.04963  -0.12824  -0.00697
  -0.04963  -0.12824   0.00697
  -0.00000  -0.04227   0.01394
  -0.00000  -0.04227  -0.01394
   0.00000  -0.22239  -0.00969
   0.00000  -0.22239   0.00969
  -0.13867   0.01778   0.00484
  -0.13867   0.01778  -0.00484
   0.13867   0.01778   0.00484
   0.13867   0.01778  -0.00484
 vibration    24
   0.10262  -0.00000  -0.00000
   0.29416   0.11059  -0.00000
   0.29416  -0.11059   0.00000
  -0.24731  -0.00000  -0.00000
  -0.04606   0.11620  -0.00000
  -0.04606  -0.11620   0.00000
  -0.23490  -0.20506  -0.00000
  -0.23490   0.20506   0.00000
   0.12027   0.00000  -0.00000
  -0.21856  -0.09496   0.01070
  -0.21856  -0.09496  -0.01070
  -0.21856   0.09496  -0.01070
  -0.21856   0.09496   0.01070
  -0.05409   0.00000   0.00000
  -0.05409   0.00000  -0.00000
   0.07093  -0.04963   0.01207
   0.07093  -0.04963  -0.01207
   0.07093   0.04963  -0.01207
   0.07093   0.04963   0.01207
   0.15690  -0.00000   0.00000
   0.15690  -0.00000  -0.00000
  -0.09784  -0.00000  -0.00000
  -0.09784  -0.00000   0.00000
   0.14234   0.13867  -0.00839
   0.14234   0.13867   0.00839
   0.14234  -0.13867   0.00839
   0.14234  -0.13867  -0.00839
 vibration    25
  -0.00000   0.06595   0.00000
  -0.05712  -0.03298   0.00000
   0.05712  -0.03298  -0.00000
  -0.00000   0.44433  -0.00000
  -0.38480  -0.22216  -0.00000
   0.38480  -0.22216   0.00000
  -0.09526  -0.05500  -0.00000
   0.09526  -0.05500   0.00000
  -0.00000   0.11000   0.00000
  -0.08124  -0.04690   0.09981
  -0.08124  -0.04690  -0.09981
   0.08124  -0.04690   0.09981
   0.08124  -0.04690  -0.09981
  -0.00000   0.09380   0.09981
   0.00000   0.09380  -0.09981
  -0.13727  -0.07925  -0.12142
  -0.13727  -0.07925   0.12142
   0.13727  -0.07925  -0.12142
   0.13727  -0.07925   0.12142
  -0.00000   0.15850  -0.12142
  -0.00000   0.15850   0.12142
  -0.00000   0.02166   0.02516
  -0.00000   0.02166  -0.02516
  -0.01876  -0.01083   0.02516
  -0.01876  -0.01083  -0.02516
   0.01876  -0.01083   0.02516
   0.01876  -0.01083  -0.02516
 vibration    26
  -0.27571  -0.00000   0.00000
   0.12140   0.22927   0.00000
   0.12140  -0.22927  -0.00000
  -0.25238  -0.00000  -0.00000
   0.12278   0.21660  -0.00000
   0.12278  -0.21660  -0.00000
   0.14795   0.23668   0.00000
   0.14795  -0.23668   0.00000
  -0.26199  -0.00000   0.00000
   0.00718   0.01806   0.16685
   0.00718   0.01806  -0.16685
   0.00718  -0.01806  -0.16685
   0.00718  -0.01806   0.16685
  -0.02411  -0.00000   0.00000
  -0.02411  -0.00000  -0.00000
  -0.02189  -0.02288   0.17904
  -0.02189  -0.02288  -0.17904
  -0.02189   0.02288  -0.17904
  -0.02189   0.02288   0.17904
   0.01774   0.00000   0.00000
   0.01774   0.00000  -0.00000
   0.01097  -0.00000   0.00000
   0.01097  -0.00000  -0.00000
   0.02062   0.00557   0.17908
   0.02062   0.00557  -0.17908
   0.02062  -0.00557  -0.17908
   0.02062  -0.00557   0.17908
 vibration    27
   0.00000  -0.25377   0.00000
  -0.22927   0.14334   0.00000
   0.22927   0.14334  -0.00000
   0.00000  -0.24784  -0.00000
  -0.21660   0.12733  -0.00000
   0.21660   0.12733   0.00000
  -0.23668   0.12534  -0.00000
   0.23668   0.12534   0.00000
   0.00000  -0.28460  -0.00000
  -0.01806   0.01368  -0.09633
  -0.01806   0.01368   0.09633
   0.01806   0.01368  -0.09633
   0.01806   0.01368   0.09633
   0.00000  -0.01761   0.19266
   0.00000  -0.01761  -0.19266
   0.02288  -0.00453  -0.10337
   0.02288  -0.00453   0.10337
  -0.02288  -0.00453  -0.10337
  -0.02288  -0.00453   0.10337
  -0.00000   0.03510   0.20674
  -0.00000   0.03510  -0.20674
  -0.00000  -0.02383   0.20678
  -0.00000  -0.02383  -0.20678
  -0.00557  -0.01418  -0.10339
  -0.00557  -0.01418   0.10339
   0.00557  -0.01418  -0.10339
   0.00557  -0.01418   0.10339
 vibration    28
  -0.03636   0.00000   0.00000
   0.01818  -0.03149  -0.00000
   0.01818   0.03149  -0.00000
  -0.01961  -0.00000  -0.00000
   0.00980  -0.01698   0.00000
   0.00980   0.01698  -0.00000
  -0.03938   0.06821  -0.00000
  -0.03938  -0.06821   0.00000
   0.07876   0.00000   0.00000
   0.04482  -0.07762  -0.00000
   0.04482  -0.07762   0.00000
   0.04482   0.07762   0.00000
   0.04482   0.07762  -0.00000
  -0.08963   0.00000   0.00000
  -0.08963   0.00000   0.00000
   0.11249  -0.19484  -0.00000
   0.11249  -0.19484   0.00000
   0.11249   0.19484   0.00000
   0.11249   0.19484  -0.00000
  -0.22499   0.00000  -0.00000
  -0.22499  -0.00000   0.00000
   0.32258   0.00000  -0.00000
   0.32258  -0.00000  -0.00000
  -0.16129   0.27936   0.00000
  -0.16129   0.27936  -0.00000
  -0.16129  -0.27936  -0.00000
  -0.16129  -0.27936   0.00000
 vibration    29
   0.00000   0.00000  -0.00038
  -0.00000   0.00000   0.00019
  -0.00000   0.00000   0.00019
   0.00000  -0.00000  -0.00249
  -0.00000  -0.00000   0.00125
   0.00000  -0.00000   0.00125
   0.00000   0.00000   0.00076
   0.00000  -0.00000   0.00076
   0.00000  -0.00000  -0.00152
  -0.05155  -0.24920  -0.01074
   0.05155   0.24920  -0.01074
   0.05155  -0.24920  -0.01074
  -0.05155   0.24920  -0.01074
   0.00000  -0.33849   0.02147
  -0.00000   0.33849   0.02147
   0.01519  -0.19618   0.00180
  -0.01519   0.19618   0.00180
  -0.01519  -0.19618   0.00180
   0.01519   0.19618   0.00180
   0.00000  -0.16987  -0.00360
  -0.00000   0.16987  -0.00360
   0.00000  -0.18057   0.03613
  -0.00000   0.18057   0.03613
   0.03251  -0.23687  -0.01806
  -0.03251   0.23687  -0.01806
  -0.03251  -0.23687  -0.01806
   0.03251   0.23687  -0.01806
 vibration    30
   0.00000   0.00000  -0.00000
   0.00000   0.00000   0.00033
   0.00000  -0.00000  -0.00033
   0.00000  -0.00000  -0.00000
  -0.00000   0.00000   0.00216
  -0.00000  -0.00000  -0.00216
  -0.00000  -0.00000   0.00132
   0.00000   0.00000  -0.00132
  -0.00000   0.00000  -0.00000
  -0.30873  -0.05155  -0.01860
   0.30873   0.05155  -0.01860
  -0.30873   0.05155   0.01860
   0.30873  -0.05155   0.01860
  -0.21944  -0.00000   0.00000
   0.21944   0.00000   0.00000
  -0.17864   0.01519   0.00311
   0.17864  -0.01519   0.00311
  -0.17864  -0.01519  -0.00311
   0.17864   0.01519  -0.00311
  -0.20494  -0.00000  -0.00000
   0.20494   0.00000  -0.00000
  -0.25564  -0.00000   0.00000
   0.25564   0.00000   0.00000
  -0.19934   0.03251  -0.03129
   0.19934  -0.03251  -0.03129
  -0.19934  -0.03251   0.03129
   0.19934   0.03251   0.03129
 vibration    31
   0.00000  -0.10166   0.00000
  -0.02940  -0.05074  -0.00000
   0.02940  -0.05074  -0.00000
  -0.00000  -0.00114   0.00000
  -0.02171   0.03646   0.00000
   0.02171   0.03646   0.00000
   0.03620   0.01430   0.00000
  -0.03620   0.01430  -0.00000
   0.00000   0.07700  -0.00000
  -0.11676  -0.16337  -0.00265
  -0.11676  -0.16337   0.00265
   0.11676  -0.16337  -0.00265
   0.11676  -0.16337   0.00265
   0.00000  -0.36561   0.00531
   0.00000  -0.36561  -0.00531
  -0.10145   0.18883  -0.00109
  -0.10145   0.18883   0.00109
   0.10145   0.18883  -0.00109
   0.10145   0.18883   0.00109
  -0.00000   0.01312   0.00218
  -0.00000   0.01312  -0.00218
   0.00000   0.33160  -0.04919
   0.00000   0.33160   0.04919
   0.17914   0.02132   0.02459
   0.17914   0.02132  -0.02459
  -0.17914   0.02132   0.02459
  -0.17914   0.02132  -0.02459
 vibration    32
  -0.03376  -0.00000  -0.00000
  -0.08469  -0.02940  -0.00000
  -0.08469   0.02940   0.00000
   0.04899  -0.00000   0.00000
   0.01139  -0.02171  -0.00000
   0.01139   0.02171  -0.00000
   0.05610   0.03620   0.00000
   0.05610  -0.03620   0.00000
  -0.00659   0.00000  -0.00000
  -0.29820  -0.11676  -0.00460
  -0.29820  -0.11676   0.00460
  -0.29820   0.11676   0.00460
  -0.29820   0.11676  -0.00460
  -0.09596  -0.00000   0.00000
  -0.09596  -0.00000  -0.00000
   0.07169  -0.10145  -0.00189
   0.07169  -0.10145   0.00189
   0.07169   0.10145   0.00189
   0.07169   0.10145  -0.00189
   0.24740   0.00000   0.00000
   0.24740   0.00000  -0.00000
  -0.08211   0.00000  -0.00000
  -0.08211   0.00000   0.00000
   0.22817   0.17914   0.04260
   0.22817   0.17914  -0.04260
   0.22817  -0.17914  -0.04260
   0.22817  -0.17914   0.04260
 vibration    33
  -0.06073  -0.00000   0.00000
   0.02316   0.04843  -0.00000
   0.02316  -0.04843   0.00000
   0.00163   0.00000   0.00000
  -0.07562  -0.04460   0.00000
  -0.07562   0.04460  -0.00000
   0.05331   0.01528   0.00000
   0.05331  -0.01528  -0.00000
   0.02683  -0.00000  -0.00000
  -0.08497  -0.16080  -0.00365
  -0.08497  -0.16080   0.00365
  -0.08497   0.16080   0.00365
  -0.08497   0.16080  -0.00365
   0.19356   0.00000  -0.00000