ANIMSTEPS   81
CRYSTAL
PRIMVEC
   10.160463440    0.000000000    0.000000000
   -5.080231720    8.799219453    0.000000000
    0.000000000    0.000000000   14.999999877
PRIMCOORD    1
     27   1
   Ta     5.08023   4.85716   7.50000   0.01048  -0.01614   0.00001
   Ta     3.41393   1.97103   7.50000   0.01048  -0.01614   0.00001
   Ta     6.74654   1.97103   7.50000   0.01048  -0.01614   0.00001
   Ta     0.00000   7.88526   7.50000   0.01048  -0.01614   0.00001
   Ta    -1.74860   4.85659   7.50000   0.01048  -0.01614   0.00001
   Ta     1.74860   4.85659   7.50000   0.01048  -0.01614   0.00001
   Ta     3.44539   7.85535   7.50000   0.01048  -0.01614   0.00001
   Ta    -3.44539   7.85535   7.50000   0.01048  -0.01614   0.00001
   Ta     0.00000   1.88775   7.50000   0.01048  -0.01614   0.00001
   S      1.69140   6.84268   5.94672   0.01048  -0.01614   0.00001
   S      1.69140   6.84268   9.05328   0.01048  -0.01614   0.00001
   S     -1.69140   6.84268   5.94672   0.01048  -0.01614   0.00001
   S     -1.69140   6.84268   9.05328   0.01048  -0.01614   0.00001
   S      0.00000   3.91309   5.94672   0.01048  -0.01614   0.00001
   S      0.00000   3.91309   9.05328   0.01048  -0.01614   0.00001
   S      6.76492   3.90573   5.88500   0.01048  -0.01614   0.00001
   S      6.76492   3.90573   9.11500   0.01048  -0.01614   0.00001
   S      3.39555   3.90573   5.88500   0.01048  -0.01614   0.00001
   S      3.39555   3.90573   9.11500   0.01048  -0.01614   0.00001
   S      5.08023   0.98777   5.88500   0.01048  -0.01614   0.00001
   S      5.08023   0.98777   9.11500   0.01048  -0.01614   0.00001
   S      5.08023   6.81574   5.90551   0.01048  -0.01614   0.00001
   S      5.08023   6.81574   9.09449   0.01048  -0.01614   0.00001
   S      1.71774   0.99174   5.90551   0.01048  -0.01614   0.00001
   S      1.71774   0.99174   9.09449   0.01048  -0.01614   0.00001
   S      8.44272   0.99174   5.90551   0.01048  -0.01614   0.00001
   S      8.44272   0.99174   9.09449   0.01048  -0.01614   0.00001
PRIMCOORD    2
     27   1
   Ta     5.08023   4.85716   7.50000   0.01609   0.01045   0.00150
   Ta     3.41393   1.97103   7.50000   0.01609   0.01045   0.00150
   Ta     6.74654   1.97103   7.50000   0.01609   0.01045   0.00150
   Ta     0.00000   7.88526   7.50000   0.01609   0.01045   0.00150
   Ta    -1.74860   4.85659   7.50000   0.01609   0.01045   0.00150
   Ta     1.74860   4.85659   7.50000   0.01609   0.01045   0.00150
   Ta     3.44539   7.85535   7.50000   0.01609   0.01045   0.00150
   Ta    -3.44539   7.85535   7.50000   0.01609   0.01045   0.00150
   Ta     0.00000   1.88775   7.50000   0.01609   0.01045   0.00150
   S      1.69140   6.84268   5.94672   0.01609   0.01045   0.00150
   S      1.69140   6.84268   9.05328   0.01609   0.01045   0.00150
   S     -1.69140   6.84268   5.94672   0.01609   0.01045   0.00150
   S     -1.69140   6.84268   9.05328   0.01609   0.01045   0.00150
   S      0.00000   3.91309   5.94672   0.01609   0.01045   0.00150
   S      0.00000   3.91309   9.05328   0.01609   0.01045   0.00150
   S      6.76492   3.90573   5.88500   0.01609   0.01045   0.00150
   S      6.76492   3.90573   9.11500   0.01609   0.01045   0.00150
   S      3.39555   3.90573   5.88500   0.01609   0.01045   0.00150
   S      3.39555   3.90573   9.11500   0.01609   0.01045   0.00150
   S      5.08023   0.98777   5.88500   0.01609   0.01045   0.00150
   S      5.08023   0.98777   9.11500   0.01609   0.01045   0.00150
   S      5.08023   6.81574   5.90551   0.01609   0.01045   0.00150
   S      5.08023   6.81574   9.09449   0.01609   0.01045   0.00150
   S      1.71774   0.99174   5.90551   0.01609   0.01045   0.00150
   S      1.71774   0.99174   9.09449   0.01609   0.01045   0.00150
   S      8.44272   0.99174   5.90551   0.01609   0.01045   0.00150
   S      8.44272   0.99174   9.09449   0.01609   0.01045   0.00150
PRIMCOORD    3
     27   1
   Ta     5.08023   4.85716   7.50000  -0.00126  -0.00081   0.01919
   Ta     3.41393   1.97103   7.50000  -0.00126  -0.00081   0.01919
   Ta     6.74654   1.97103   7.50000  -0.00126  -0.00081   0.01919
   Ta     0.00000   7.88526   7.50000  -0.00126  -0.00081   0.01919
   Ta    -1.74860   4.85659   7.50000  -0.00126  -0.00081   0.01919
   Ta     1.74860   4.85659   7.50000  -0.00126  -0.00081   0.01919
   Ta     3.44539   7.85535   7.50000  -0.00126  -0.00081   0.01919
   Ta    -3.44539   7.85535   7.50000  -0.00126  -0.00081   0.01919
   Ta     0.00000   1.88775   7.50000  -0.00126  -0.00081   0.01919
   S      1.69140   6.84268   5.94672  -0.00126  -0.00081   0.01919
   S      1.69140   6.84268   9.05328  -0.00126  -0.00081   0.01919
   S     -1.69140   6.84268   5.94672  -0.00126  -0.00081   0.01919
   S     -1.69140   6.84268   9.05328  -0.00126  -0.00081   0.01919
   S      0.00000   3.91309   5.94672  -0.00126  -0.00081   0.01919
   S      0.00000   3.91309   9.05328  -0.00126  -0.00081   0.01919
   S      6.76492   3.90573   5.88500  -0.00126  -0.00081   0.01919
   S      6.76492   3.90573   9.11500  -0.00126  -0.00081   0.01919
   S      3.39555   3.90573   5.88500  -0.00126  -0.00081   0.01919
   S      3.39555   3.90573   9.11500  -0.00126  -0.00081   0.01919
   S      5.08023   0.98777   5.88500  -0.00126  -0.00081   0.01919
   S      5.08023   0.98777   9.11500  -0.00126  -0.00081   0.01919
   S      5.08023   6.81574   5.90551  -0.00126  -0.00081   0.01919
   S      5.08023   6.81574   9.09449  -0.00126  -0.00081   0.01919
   S      1.71774   0.99174   5.90551  -0.00126  -0.00081   0.01919
   S      1.71774   0.99174   9.09449  -0.00126  -0.00081   0.01919
   S      8.44272   0.99174   5.90551  -0.00126  -0.00081   0.01919
   S      8.44272   0.99174   9.09449  -0.00126  -0.00081   0.01919
PRIMCOORD    4
     27   1
   Ta     5.08023   4.85716   7.50000  -0.03367  -0.00000   0.00000
   Ta     3.41393   1.97103   7.50000  -0.02007   0.00785   0.00000
   Ta     6.74654   1.97103   7.50000  -0.02007  -0.00785  -0.00000
   Ta     0.00000   7.88526   7.50000  -0.01113   0.00000  -0.00000
   Ta    -1.74860   4.85659   7.50000   0.01182   0.01325  -0.00000
   Ta     1.74860   4.85659   7.50000   0.01182  -0.01325   0.00000
   Ta     3.44539   7.85535   7.50000   0.00916  -0.02105   0.00000
   Ta    -3.44539   7.85535   7.50000   0.00916   0.02105   0.00000
   Ta     0.00000   1.88775   7.50000   0.04562  -0.00000  -0.00000
   S      1.69140   6.84268   5.94672  -0.00345   0.00038   0.00657
   S      1.69140   6.84268   9.05328  -0.00345   0.00038  -0.00657
   S     -1.69140   6.84268   5.94672  -0.00345  -0.00038  -0.00657
   S     -1.69140   6.84268   9.05328  -0.00345  -0.00038   0.00657
   S      0.00000   3.91309   5.94672  -0.00411  -0.00000  -0.00000
   S      0.00000   3.91309   9.05328  -0.00411  -0.00000   0.00000
   S      6.76492   3.90573   5.88500  -0.00089   0.00654   0.01440
   S      6.76492   3.90573   9.11500  -0.00089   0.00654  -0.01440
   S      3.39555   3.90573   5.88500  -0.00089  -0.00654  -0.01440
   S      3.39555   3.90573   9.11500  -0.00089  -0.00654   0.01440
   S      5.08023   0.98777   5.88500  -0.01222   0.00000  -0.00000
   S      5.08023   0.98777   9.11500  -0.01222   0.00000   0.00000
   S      5.08023   6.81574   5.90551   0.01384  -0.00000   0.00000
   S      5.08023   6.81574   9.09449   0.01384  -0.00000  -0.00000
   S      1.71774   0.99174   5.90551   0.00188  -0.00691  -0.02181
   S      1.71774   0.99174   9.09449   0.00188  -0.00691   0.02181
   S      8.44272   0.99174   5.90551   0.00188   0.00691   0.02181
   S      8.44272   0.99174   9.09449   0.00188   0.00691  -0.02181
PRIMCOORD    5
     27   1
   Ta     5.08023   4.85716   7.50000   0.00000  -0.01554   0.00000
   Ta     3.41393   1.97103   7.50000   0.00785  -0.02914   0.00000
   Ta     6.74654   1.97103   7.50000  -0.00785  -0.02914   0.00000
   Ta     0.00000   7.88526   7.50000   0.00000   0.01947   0.00000
   Ta    -1.74860   4.85659   7.50000   0.01325  -0.00348   0.00000
   Ta     1.74860   4.85659   7.50000  -0.01325  -0.00348  -0.00000
   Ta     3.44539   7.85535   7.50000  -0.02105   0.03347   0.00000
   Ta    -3.44539   7.85535   7.50000   0.02105   0.03347   0.00000
   Ta     0.00000   1.88775   7.50000  -0.00000  -0.00300  -0.00000
   S      1.69140   6.84268   5.94672   0.00038  -0.00389   0.00379
   S      1.69140   6.84268   9.05328   0.00038  -0.00389  -0.00379
   S     -1.69140   6.84268   5.94672  -0.00038  -0.00389   0.00379
   S     -1.69140   6.84268   9.05328  -0.00038  -0.00389  -0.00379
   S      0.00000   3.91309   5.94672   0.00000  -0.00323  -0.00759
   S      0.00000   3.91309   9.05328   0.00000  -0.00323   0.00759
   S      6.76492   3.90573   5.88500   0.00654  -0.00845   0.00831
   S      6.76492   3.90573   9.11500   0.00654  -0.00845  -0.00831
   S      3.39555   3.90573   5.88500  -0.00654  -0.00845   0.00831
   S      3.39555   3.90573   9.11500  -0.00654  -0.00845  -0.00831
   S      5.08023   0.98777   5.88500   0.00000   0.00288  -0.01662
   S      5.08023   0.98777   9.11500   0.00000   0.00288   0.01662
   S      5.08023   6.81574   5.90551  -0.00000  -0.00211   0.02518
   S      5.08023   6.81574   9.09449  -0.00000  -0.00211  -0.02518
   S      1.71774   0.99174   5.90551  -0.00691   0.00986  -0.01259
   S      1.71774   0.99174   9.09449  -0.00691   0.00986   0.01259
   S      8.44272   0.99174   5.90551   0.00691   0.00985  -0.01259
   S      8.44272   0.99174   9.09449   0.00691   0.00985   0.01259
PRIMCOORD    6
     27   1
   Ta     5.08023   4.85716   7.50000   0.00000  -0.00000  -0.00000
   Ta     3.41393   1.97103   7.50000   0.00000   0.00000  -0.00734
   Ta     6.74654   1.97103   7.50000  -0.00000   0.00000   0.00734
   Ta     0.00000   7.88526   7.50000  -0.00000   0.00000   0.00000
   Ta    -1.74860   4.85659   7.50000  -0.00000   0.00000   0.04065
   Ta     1.74860   4.85659   7.50000  -0.00000  -0.00000  -0.04065
   Ta     3.44539   7.85535   7.50000   0.00000  -0.00000  -0.02063
   Ta    -3.44539   7.85535   7.50000   0.00000  -0.00000   0.02063
   Ta     0.00000   1.88775   7.50000   0.00000   0.00000  -0.00000
   S      1.69140   6.84268   5.94672  -0.00503   0.00866  -0.02249
   S      1.69140   6.84268   9.05328   0.00503  -0.00866  -0.02249
   S     -1.69140   6.84268   5.94672  -0.00503  -0.00866   0.02249
   S     -1.69140   6.84268   9.05328   0.00503   0.00866   0.02249
   S      0.00000   3.91309   5.94672  -0.02003   0.00000  -0.00000
   S      0.00000   3.91309   9.05328   0.02003  -0.00000  -0.00000
   S      6.76492   3.90573   5.88500   0.01176   0.00415   0.01770
   S      6.76492   3.90573   9.11500  -0.01176  -0.00415   0.01770
   S      3.39555   3.90573   5.88500   0.01176  -0.00415  -0.01770
   S      3.39555   3.90573   9.11500  -0.01176   0.00415  -0.01770
   S      5.08023   0.98777   5.88500   0.00457  -0.00000   0.00000
   S      5.08023   0.98777   9.11500  -0.00457   0.00000   0.00000
   S      5.08023   6.81574   5.90551   0.01153   0.00000   0.00000
   S      5.08023   6.81574   9.09449  -0.01153  -0.00000   0.00000
   S      1.71774   0.99174   5.90551  -0.00208  -0.00786   0.00390
   S      1.71774   0.99174   9.09449   0.00208   0.00786   0.00390
   S      8.44272   0.99174   5.90551  -0.00208   0.00786  -0.00390
   S      8.44272   0.99174   9.09449   0.00208  -0.00786  -0.00390
PRIMCOORD    7
     27   1
   Ta     5.08023   4.85716   7.50000  -0.00000  -0.00000  -0.00848
   Ta     3.41393   1.97103   7.50000   0.00000  -0.00000   0.00424
   Ta     6.74654   1.97103   7.50000  -0.00000   0.00000   0.00424
   Ta     0.00000   7.88526   7.50000  -0.00000   0.00000   0.04694
   Ta    -1.74860   4.85659   7.50000  -0.00000   0.00000  -0.02347
   Ta     1.74860   4.85659   7.50000   0.00000   0.00000  -0.02347
   Ta     3.44539   7.85535   7.50000   0.00000  -0.00000   0.01191
   Ta    -3.44539   7.85535   7.50000  -0.00000  -0.00000   0.01191
   Ta     0.00000   1.88775   7.50000   0.00000  -0.00000  -0.02382
   S      1.69140   6.84268   5.94672  -0.00866   0.01503   0.01299
   S      1.69140   6.84268   9.05328   0.00866  -0.01503   0.01299
   S     -1.69140   6.84268   5.94672   0.00866   0.01503   0.01299
   S     -1.69140   6.84268   9.05328  -0.00866  -0.01503   0.01299
   S      0.00000   3.91309   5.94672   0.00000   0.00003  -0.02597
   S      0.00000   3.91309   9.05328  -0.00000  -0.00003  -0.02597
   S      6.76492   3.90573   5.88500  -0.00415  -0.00697  -0.01022
   S      6.76492   3.90573   9.11500   0.00415   0.00697  -0.01022
   S      3.39555   3.90573   5.88500   0.00415  -0.00697  -0.01022
   S      3.39555   3.90573   9.11500  -0.00415   0.00697  -0.01022
   S      5.08023   0.98777   5.88500  -0.00000  -0.01415   0.02044
   S      5.08023   0.98777   9.11500   0.00000   0.01415   0.02044
   S      5.08023   6.81574   5.90551  -0.00000   0.00662   0.00451
   S      5.08023   6.81574   9.09449   0.00000  -0.00662   0.00451
   S      1.71774   0.99174   5.90551   0.00786  -0.00699  -0.00225
   S      1.71774   0.99174   9.09449  -0.00786   0.00699  -0.00225
   S      8.44272   0.99174   5.90551  -0.00786  -0.00699  -0.00225
   S      8.44272   0.99174   9.09449   0.00786   0.00699  -0.00225
PRIMCOORD    8
     27   1
   Ta     5.08023   4.85716   7.50000  -0.00000  -0.00000  -0.03013
   Ta     3.41393   1.97103   7.50000   0.00000   0.00000  -0.03013
   Ta     6.74654   1.97103   7.50000  -0.00000   0.00000  -0.03013
   Ta     0.00000   7.88526   7.50000   0.00000   0.00000   0.01658
   Ta    -1.74860   4.85659   7.50000   0.00000  -0.00000   0.01658
   Ta     1.74860   4.85659   7.50000   0.00000  -0.00000   0.01658
   Ta     3.44539   7.85535   7.50000  -0.00000   0.00000   0.01358
   Ta    -3.44539   7.85535   7.50000  -0.00000   0.00000   0.01358
   Ta     0.00000   1.88775   7.50000  -0.00000   0.00000   0.01358
   S      1.69140   6.84268   5.94672   0.00012   0.00007   0.01708
   S      1.69140   6.84268   9.05328  -0.00012  -0.00007   0.01708
   S     -1.69140   6.84268   5.94672  -0.00012   0.00007   0.01708
   S     -1.69140   6.84268   9.05328   0.00012  -0.00007   0.01708
   S      0.00000   3.91309   5.94672   0.00000  -0.00014   0.01708
   S      0.00000   3.91309   9.05328   0.00000   0.00014   0.01708
   S      6.76492   3.90573   5.88500   0.01338   0.00772  -0.01615
   S      6.76492   3.90573   9.11500  -0.01338  -0.00772  -0.01615
   S      3.39555   3.90573   5.88500  -0.01338   0.00772  -0.01615
   S      3.39555   3.90573   9.11500   0.01338  -0.00772  -0.01615
   S      5.08023   0.98777   5.88500  -0.00000  -0.01545  -0.01615
   S      5.08023   0.98777   9.11500  -0.00000   0.01545  -0.01615
   S      5.08023   6.81574   5.90551  -0.00000   0.01383  -0.00100
   S      5.08023   6.81574   9.09449  -0.00000  -0.01383  -0.00100
   S      1.71774   0.99174   5.90551  -0.01197  -0.00691  -0.00100
   S      1.71774   0.99174   9.09449   0.01197   0.00691  -0.00100
   S      8.44272   0.99174   5.90551   0.01197  -0.00691  -0.00100
   S      8.44272   0.99174   9.09449  -0.01197   0.00691  -0.00100
PRIMCOORD    9
     27   1
   Ta     5.08023   4.85716   7.50000   0.00000   0.01445  -0.00000
   Ta     3.41393   1.97103   7.50000   0.01962  -0.01954  -0.00000
   Ta     6.74654   1.97103   7.50000  -0.01962  -0.01954  -0.00000
   Ta     0.00000   7.88526   7.50000  -0.00000   0.01311   0.00000
   Ta    -1.74860   4.85659   7.50000  -0.01353   0.03655   0.00000
   Ta     1.74860   4.85659   7.50000   0.01353   0.03655   0.00000
   Ta     3.44539   7.85535   7.50000  -0.00615  -0.01779  -0.00000
   Ta    -3.44539   7.85535   7.50000   0.00615  -0.01779  -0.00000
   Ta     0.00000   1.88775   7.50000   0.00000  -0.02844   0.00000
   S      1.69140   6.84268   5.94672  -0.00878   0.01142  -0.01000
   S      1.69140   6.84268   9.05328  -0.00878   0.01142   0.01000
   S     -1.69140   6.84268   5.94672   0.00878   0.01142  -0.01000
   S     -1.69140   6.84268   9.05328   0.00878   0.01142   0.01000
   S      0.00000   3.91309   5.94672  -0.00000  -0.00378   0.02000
   S      0.00000   3.91309   9.05328  -0.00000  -0.00378  -0.02000
   S      6.76492   3.90573   5.88500   0.00253  -0.00604   0.00902
   S      6.76492   3.90573   9.11500   0.00253  -0.00604  -0.00902
   S      3.39555   3.90573   5.88500  -0.00253  -0.00604   0.00902
   S      3.39555   3.90573   9.11500  -0.00253  -0.00604  -0.00902
   S      5.08023   0.98777   5.88500   0.00000  -0.00166  -0.01804
   S      5.08023   0.98777   9.11500   0.00000  -0.00166   0.01804
   S      5.08023   6.81574   5.90551   0.00000   0.00701  -0.00459
   S      5.08023   6.81574   9.09449   0.00000   0.00701   0.00459
   S      1.71774   0.99174   5.90551   0.00562  -0.00274   0.00229
   S      1.71774   0.99174   9.09449   0.00562  -0.00274  -0.00229
   S      8.44272   0.99174   5.90551  -0.00562  -0.00274   0.00229
   S      8.44272   0.99174   9.09449  -0.00562  -0.00274  -0.00229
PRIMCOORD   10
     27   1
   Ta     5.08023   4.85716   7.50000  -0.03086   0.00000   0.00000
   Ta     3.41393   1.97103   7.50000   0.00312   0.01962   0.00000
   Ta     6.74654   1.97103   7.50000   0.00312  -0.01962   0.00000
   Ta     0.00000   7.88526   7.50000   0.04437   0.00000  -0.00000
   Ta    -1.74860   4.85659   7.50000   0.02092  -0.01353  -0.00000
   Ta     1.74860   4.85659   7.50000   0.02092   0.01353  -0.00000
   Ta     3.44539   7.85535   7.50000  -0.02489  -0.00615   0.00000
   Ta    -3.44539   7.85535   7.50000  -0.02489   0.00615   0.00000
   Ta     0.00000   1.88775   7.50000  -0.01424  -0.00000   0.00000
   S      1.69140   6.84268   5.94672   0.00129  -0.00878  -0.01732
   S      1.69140   6.84268   9.05328   0.00129  -0.00878   0.01732
   S     -1.69140   6.84268   5.94672   0.00129   0.00878   0.01732
   S     -1.69140   6.84268   9.05328   0.00129   0.00878  -0.01732
   S      0.00000   3.91309   5.94672   0.01649  -0.00000   0.00000
   S      0.00000   3.91309   9.05328   0.01649  -0.00000  -0.00000
   S      6.76492   3.90573   5.88500  -0.00312   0.00253   0.01563
   S      6.76492   3.90573   9.11500  -0.00312   0.00253  -0.01563
   S      3.39555   3.90573   5.88500  -0.00312  -0.00253  -0.01563
   S      3.39555   3.90573   9.11500  -0.00312  -0.00253   0.01563
   S      5.08023   0.98777   5.88500  -0.00750  -0.00000  -0.00000
   S      5.08023   0.98777   9.11500  -0.00750  -0.00000   0.00000
   S      5.08023   6.81574   5.90551  -0.00598   0.00000  -0.00000
   S      5.08023   6.81574   9.09449  -0.00598   0.00000   0.00000
   S      1.71774   0.99174   5.90551   0.00376   0.00562   0.00397
   S      1.71774   0.99174   9.09449   0.00376   0.00562  -0.00397
   S      8.44272   0.99174   5.90551   0.00376  -0.00562  -0.00397
   S      8.44272   0.99174   9.09449   0.00376  -0.00562   0.00397
PRIMCOORD   11
     27   1
   Ta     5.08023   4.85716   7.50000   0.00000   0.04576  -0.00000
   Ta     3.41393   1.97103   7.50000  -0.03963  -0.02288  -0.00000
   Ta     6.74654   1.97103   7.50000   0.03963  -0.02288  -0.00000
   Ta     0.00000   7.88526   7.50000  -0.00000  -0.00773  -0.00000
   Ta    -1.74860   4.85659   7.50000   0.00669   0.00386  -0.00000
   Ta     1.74860   4.85659   7.50000  -0.00669   0.00386  -0.00000
   Ta     3.44539   7.85535   7.50000  -0.00473  -0.00273   0.00000
   Ta    -3.44539   7.85535   7.50000   0.00473  -0.00273   0.00000
   Ta     0.00000   1.88775   7.50000   0.00000   0.00546   0.00000
   S      1.69140   6.84268   5.94672   0.00183   0.00106  -0.00303
   S      1.69140   6.84268   9.05328   0.00183   0.00106   0.00303
   S     -1.69140   6.84268   5.94672  -0.00183   0.00106  -0.00303
   S     -1.69140   6.84268   9.05328  -0.00183   0.00106   0.00303
   S      0.00000   3.91309   5.94672  -0.00000  -0.00211  -0.00303
   S      0.00000   3.91309   9.05328  -0.00000  -0.00211   0.00303
   S      6.76492   3.90573   5.88500  -0.00818  -0.00472   0.01317
   S      6.76492   3.90573   9.11500  -0.00818  -0.00472  -0.01317
   S      3.39555   3.90573   5.88500   0.00818  -0.00472   0.01317
   S      3.39555   3.90573   9.11500   0.00818  -0.00472  -0.01317
   S      5.08023   0.98777   5.88500   0.00000   0.00945   0.01317
   S      5.08023   0.98777   9.11500   0.00000   0.00945  -0.01317
   S      5.08023   6.81574   5.90551   0.00000   0.01456  -0.00930
   S      5.08023   6.81574   9.09449   0.00000   0.01456   0.00930
   S      1.71774   0.99174   5.90551  -0.01261  -0.00728  -0.00930
   S      1.71774   0.99174   9.09449  -0.01261  -0.00728   0.00930
   S      8.44272   0.99174   5.90551   0.01261  -0.00728  -0.00930
   S      8.44272   0.99174   9.09449   0.01261  -0.00728   0.00930
PRIMCOORD   12
     27   1
   Ta     5.08023   4.85716   7.50000  -0.00000   0.00000   0.00153
   Ta     3.41393   1.97103   7.50000  -0.00000  -0.00000   0.00153
   Ta     6.74654   1.97103   7.50000   0.00000  -0.00000   0.00153
   Ta     0.00000   7.88526   7.50000   0.00000  -0.00000   0.02543
   Ta    -1.74860   4.85659   7.50000   0.00000   0.00000   0.02543
   Ta     1.74860   4.85659   7.50000  -0.00000   0.00000   0.02543
   Ta     3.44539   7.85535   7.50000  -0.00000  -0.00000  -0.02742
   Ta    -3.44539   7.85535   7.50000   0.00000  -0.00000  -0.02742
   Ta     0.00000   1.88775   7.50000  -0.00000   0.00000  -0.02742
   S      1.69140   6.84268   5.94672  -0.01305  -0.00754   0.00983
   S      1.69140   6.84268   9.05328   0.01305   0.00754   0.00983
   S     -1.69140   6.84268   5.94672   0.01305  -0.00754   0.00983
   S     -1.69140   6.84268   9.05328  -0.01305   0.00754   0.00983
   S      0.00000   3.91309   5.94672   0.00000   0.01507   0.00983
   S      0.00000   3.91309   9.05328  -0.00000  -0.01507   0.00983
   S      6.76492   3.90573   5.88500   0.00665   0.00384   0.01058
   S      6.76492   3.90573   9.11500  -0.00665  -0.00384   0.01058
   S      3.39555   3.90573   5.88500  -0.00665   0.00384   0.01058
   S      3.39555   3.90573   9.11500   0.00665  -0.00384   0.01058
   S      5.08023   0.98777   5.88500  -0.00000  -0.00768   0.01058
   S      5.08023   0.98777   9.11500   0.00000   0.00768   0.01058
   S      5.08023   6.81574   5.90551  -0.00000  -0.01026  -0.01913
   S      5.08023   6.81574   9.09449   0.00000   0.01026  -0.01913
   S      1.71774   0.99174   5.90551   0.00889   0.00513  -0.01913
   S      1.71774   0.99174   9.09449  -0.00889  -0.00513  -0.01913
   S      8.44272   0.99174   5.90551  -0.00889   0.00513  -0.01913
   S      8.44272   0.99174   9.09449   0.00889  -0.00513  -0.01913
PRIMCOORD   13
     27   1
   Ta     5.08023   4.85716   7.50000  -0.00000   0.00000  -0.00000
   Ta     3.41393   1.97103   7.50000  -0.00000  -0.00000   0.03395
   Ta     6.74654   1.97103   7.50000   0.00000  -0.00000  -0.03395
   Ta     0.00000   7.88526   7.50000   0.00000  -0.00000   0.00000
   Ta    -1.74860   4.85659   7.50000   0.00000  -0.00000  -0.00859
   Ta     1.74860   4.85659   7.50000  -0.00000   0.00000   0.00859
   Ta     3.44539   7.85535   7.50000  -0.00000   0.00000  -0.02872
   Ta    -3.44539   7.85535   7.50000  -0.00000   0.00000   0.02872
   Ta     0.00000   1.88775   7.50000  -0.00000   0.00000   0.00000
   S      1.69140   6.84268   5.94672  -0.00743  -0.00657  -0.00817
   S      1.69140   6.84268   9.05328   0.00743   0.00657  -0.00817
   S     -1.69140   6.84268   5.94672  -0.00743   0.00657   0.00817
   S     -1.69140   6.84268   9.05328   0.00743  -0.00657   0.00817
   S      0.00000   3.91309   5.94672   0.00395  -0.00000   0.00000
   S      0.00000   3.91309   9.05328  -0.00395   0.00000   0.00000
   S      6.76492   3.90573   5.88500  -0.00267   0.00959  -0.01517
   S      6.76492   3.90573   9.11500   0.00267  -0.00959  -0.01517
   S      3.39555   3.90573   5.88500  -0.00267  -0.00959   0.01517
   S      3.39555   3.90573   9.11500   0.00267   0.00959   0.01517
   S      5.08023   0.98777   5.88500  -0.01929   0.00000   0.00000
   S      5.08023   0.98777   9.11500   0.01929  -0.00000   0.00000
   S      5.08023   6.81574   5.90551   0.01610   0.00000  -0.00000
   S      5.08023   6.81574   9.09449  -0.01610  -0.00000  -0.00000
   S      1.71774   0.99174   5.90551   0.00930  -0.00393   0.02355
   S      1.71774   0.99174   9.09449  -0.00930   0.00393   0.02355
   S      8.44272   0.99174   5.90551   0.00930   0.00393  -0.02355
   S      8.44272   0.99174   9.09449  -0.00930  -0.00393  -0.02355
PRIMCOORD   14
     27   1
   Ta     5.08023   4.85716   7.50000  -0.00000  -0.00000  -0.03920
   Ta     3.41393   1.97103   7.50000   0.00000   0.00000   0.01960
   Ta     6.74654   1.97103   7.50000  -0.00000   0.00000   0.01960
   Ta     0.00000   7.88526   7.50000  -0.00000   0.00000   0.00992
   Ta    -1.74860   4.85659   7.50000   0.00000  -0.00000  -0.00496
   Ta     1.74860   4.85659   7.50000   0.00000   0.00000  -0.00496
   Ta     3.44539   7.85535   7.50000   0.00000  -0.00000  -0.01658
   Ta    -3.44539   7.85535   7.50000   0.00000   0.00000  -0.01658
   Ta     0.00000   1.88775   7.50000  -0.00000  -0.00000   0.03316
   S      1.69140   6.84268   5.94672  -0.00657   0.00015  -0.00472
   S      1.69140   6.84268   9.05328   0.00657  -0.00015  -0.00472
   S     -1.69140   6.84268   5.94672   0.00657   0.00015  -0.00472
   S     -1.69140   6.84268   9.05328  -0.00657  -0.00015  -0.00472
   S      0.00000   3.91309   5.94672  -0.00000  -0.01123   0.00943
   S      0.00000   3.91309   9.05328   0.00000   0.01123   0.00943
   S      6.76492   3.90573   5.88500   0.00959  -0.01375  -0.00876
   S      6.76492   3.90573   9.11500  -0.00959   0.01375  -0.00876
   S      3.39555   3.90573   5.88500  -0.00959  -0.01375  -0.00876
   S      3.39555   3.90573   9.11500   0.00959   0.01375  -0.00876
   S      5.08023   0.98777   5.88500   0.00000   0.00287   0.01751
   S      5.08023   0.98777   9.11500  -0.00000  -0.00287   0.01751
   S      5.08023   6.81574   5.90551  -0.00000   0.00704  -0.02719
   S      5.08023   6.81574   9.09449   0.00000  -0.00704  -0.02719
   S      1.71774   0.99174   5.90551  -0.00393   0.01384   0.01360
   S      1.71774   0.99174   9.09449   0.00393  -0.01384   0.01360
   S      8.44272   0.99174   5.90551   0.00393   0.01384   0.01360
   S      8.44272   0.99174   9.09449  -0.00393  -0.01384   0.01360
PRIMCOORD   15
     27   1
   Ta     5.08023   4.85716   7.50000  -0.00245   0.00000  -0.00000
   Ta     3.41393   1.97103   7.50000   0.00123  -0.00212   0.00000
   Ta     6.74654   1.97103   7.50000   0.00123   0.00212  -0.00000
   Ta     0.00000   7.88526   7.50000   0.03152  -0.00000   0.00000
   Ta    -1.74860   4.85659   7.50000  -0.01576   0.02730  -0.00000
   Ta     1.74860   4.85659   7.50000  -0.01576  -0.02730   0.00000
   Ta     3.44539   7.85535   7.50000  -0.01449   0.02510  -0.00000
   Ta    -3.44539   7.85535   7.50000  -0.01449  -0.02510  -0.00000
   Ta     0.00000   1.88775   7.50000   0.02898  -0.00000   0.00000
   S      1.69140   6.84268   5.94672   0.01040  -0.01801   0.00000
   S      1.69140   6.84268   9.05328   0.01040  -0.01801  -0.00000
   S     -1.69140   6.84268   5.94672   0.01040   0.01801  -0.00000
   S     -1.69140   6.84268   9.05328   0.01040   0.01801   0.00000
   S      0.00000   3.91309   5.94672  -0.02080  -0.00000   0.00000
   S      0.00000   3.91309   9.05328  -0.02080   0.00000   0.00000
   S      6.76492   3.90573   5.88500  -0.00340   0.00589   0.00000
   S      6.76492   3.90573   9.11500  -0.00340   0.00589  -0.00000
   S      3.39555   3.90573   5.88500  -0.00340  -0.00589  -0.00000
   S      3.39555   3.90573   9.11500  -0.00340  -0.00589   0.00000
   S      5.08023   0.98777   5.88500   0.00680  -0.00000   0.00000
   S      5.08023   0.98777   9.11500   0.00680  -0.00000   0.00000
   S      5.08023   6.81574   5.90551  -0.01637   0.00000  -0.00000
   S      5.08023   6.81574   9.09449  -0.01637   0.00000  -0.00000
   S      1.71774   0.99174   5.90551   0.00819  -0.01418  -0.00000
   S      1.71774   0.99174   9.09449   0.00819  -0.01418   0.00000
   S      8.44272   0.99174   5.90551   0.00819   0.01418   0.00000
   S      8.44272   0.99174   9.09449   0.00819   0.01418  -0.00000
PRIMCOORD   16
     27   1
   Ta     5.08023   4.85716   7.50000   0.02401  -0.00000   0.00000
   Ta     3.41393   1.97103   7.50000  -0.01201   0.02080  -0.00000
   Ta     6.74654   1.97103   7.50000  -0.01201  -0.02080   0.00000
   Ta     0.00000   7.88526   7.50000  -0.02186  -0.00000   0.00000
   Ta    -1.74860   4.85659   7.50000   0.01093  -0.01893  -0.00000
   Ta     1.74860   4.85659   7.50000   0.01093   0.01893   0.00000
   Ta     3.44539   7.85535   7.50000  -0.01379   0.02389  -0.00000
   Ta    -3.44539   7.85535   7.50000  -0.01379  -0.02389   0.00000
   Ta     0.00000   1.88775   7.50000   0.02758   0.00000   0.00000
   S      1.69140   6.84268   5.94672  -0.00876   0.01517  -0.00000
   S      1.69140   6.84268   9.05328  -0.00876   0.01517   0.00000
   S     -1.69140   6.84268   5.94672  -0.00876  -0.01517   0.00000
   S     -1.69140   6.84268   9.05328  -0.00876  -0.01517  -0.00000
   S      0.00000   3.91309   5.94672   0.01752   0.00000  -0.00000
   S      0.00000   3.91309   9.05328   0.01752   0.00000   0.00000
   S      6.76492   3.90573   5.88500   0.00561  -0.00971   0.00000
   S      6.76492   3.90573   9.11500   0.00561  -0.00971  -0.00000
   S      3.39555   3.90573   5.88500   0.00561   0.00971  -0.00000
   S      3.39555   3.90573   9.11500   0.00561   0.00971   0.00000
   S      5.08023   0.98777   5.88500  -0.01121  -0.00000   0.00000
   S      5.08023   0.98777   9.11500  -0.01121  -0.00000  -0.00000
   S      5.08023   6.81574   5.90551  -0.01807   0.00000   0.00000
   S      5.08023   6.81574   9.09449  -0.01807   0.00000  -0.00000
   S      1.71774   0.99174   5.90551   0.00903  -0.01565  -0.00000
   S      1.71774   0.99174   9.09449   0.00903  -0.01565   0.00000
   S      8.44272   0.99174   5.90551   0.00903   0.01565   0.00000
   S      8.44272   0.99174   9.09449   0.00903   0.01565  -0.00000
PRIMCOORD   17