Module for intel-oneAPI 2021.4 loaded.
 
:: initializing oneAPI environment ...
   2811236: BASH_VERSION = 4.4.20(1)-release
:: advisor -- latest
:: ccl -- latest
:: clck -- latest
:: compiler -- latest
:: dal -- latest
:: debugger -- latest
:: dev-utilities -- latest
:: dnnl -- latest
:: dpcpp-ct -- latest
:: dpl -- latest
:: inspector -- latest
:: intelpython -- latest
:: ipp -- latest
:: ippcp -- latest
:: ipp -- latest
:: itac -- latest
:: LPOT -- latest
:: mkl -- latest
:: modelzoo -- latest
:: mpi -- latest
:: pytorch -- latest
:: tbb -- latest
:: tensorflow -- latest
:: vpl -- latest
:: vtune -- latest
:: oneAPI environment initialized ::
 

     Program PWSCF v.7.0 starts on  4Jun2022 at 15:11:32 

     This program is part of the open-source Quantum ESPRESSO suite
     for quantum simulation of materials; please cite
         "P. Giannozzi et al., J. Phys.:Condens. Matter 21 395502 (2009);
         "P. Giannozzi et al., J. Phys.:Condens. Matter 29 465901 (2017);
         "P. Giannozzi et al., J. Chem. Phys. 152 154105 (2020);
          URL http://www.quantum-espresso.org", 
     in publications or presentations arising from this work. More details at
     http://www.quantum-espresso.org/quote

     Parallel version (MPI), running on    54 processors

     MPI processes distributed on     3 nodes
     K-points division:     npool     =       3
     R & G space division:  proc/nbgrp/npool/nimage =      18
     587 MiB available memory on the printing compute node when the environment starts
 
     Reading input from in_files/TaS2_bench_nd_4_n_procs_54_0.scf

     Current dimensions of program PWSCF are:
     Max number of different atomic species (ntypx) = 10
     Max number of k-points (npk) =  40000
     Max angular momentum in pseudopotentials (lmaxx) =  4

     Subspace diagonalization in iterative solution of the eigenvalue problem:
     one sub-group per band group will be used
     scalapack distributed-memory algorithm (size of sub-group:  2*  2 procs)

 
     Parallelization info
     --------------------
     sticks:   dense  smooth     PW     G-vecs:    dense   smooth      PW
     Min         564     564    147                67906    67906    9065
     Max         565     565    148                67911    67911    9070
     Sum       10165   10165   2653              1222357  1222357  163209
 
     Using Slab Decomposition
 


     bravais-lattice index     =            4
     lattice parameter (alat)  =      19.2005  a.u.
     unit-cell volume          =    9049.9364 (a.u.)^3
     number of atoms/cell      =           27
     number of atomic types    =            2
     number of electrons       =       153.00
     number of Kohn-Sham states=           92
     kinetic-energy cutoff     =     100.0000  Ry
     charge density cutoff     =     400.0000  Ry
     scf convergence threshold =      1.0E-15
     mixing beta               =       0.7000
     number of iterations used =            8  plain     mixing
     Exchange-correlation= SLA-PW-PBX-PBC
                           (   1   4   3   4   0   0   0)

     celldm(1)=  19.200493  celldm(2)=   0.000000  celldm(3)=   1.476311
     celldm(4)=   0.000000  celldm(5)=   0.000000  celldm(6)=   0.000000

     crystal axes: (cart. coord. in units of alat)
               a(1) = (   1.000000   0.000000   0.000000 )  
               a(2) = (  -0.500000   0.866025   0.000000 )  
               a(3) = (   0.000000   0.000000   1.476311 )  

     reciprocal axes: (cart. coord. in units 2 pi/alat)
               b(1) = (  1.000000  0.577350  0.000000 )  
               b(2) = (  0.000000  1.154701  0.000000 )  
               b(3) = (  0.000000  0.000000  0.677364 )  


     PseudoPot. # 1 for Ta read from file:
     ./pseudos/Ta.pbe-hgh.UPF
     MD5 check sum: 129c51a9a4223465c43ca8d238d17e53
     Pseudo is Norm-conserving, Zval =  5.0
     Generated in analytical, separable form
     Using radial grid of 1273 points,  6 beta functions with: 
                l(1) =   0
                l(2) =   0
                l(3) =   1
                l(4) =   1
                l(5) =   2
                l(6) =   2

     PseudoPot. # 2 for S  read from file:
     ./pseudos/S.pbe-hgh.UPF
     MD5 check sum: 3a21e384b95a7cc84d045d3bcc0c4ba8
     Pseudo is Norm-conserving, Zval =  6.0
     Generated in analytical, separable form
     Using radial grid of 1151 points,  3 beta functions with: 
                l(1) =   0
                l(2) =   0
                l(3) =   1

     atomic species   valence    mass     pseudopotential
        Ta             5.00   180.94788     Ta( 1.00)
        S              6.00    32.06500     S ( 1.00)

     12 Sym. Ops. (no inversion) found



   Cartesian axes

     site n.     atom                  positions (alat units)
         1           Ta  tau(   1) = (   0.5000000   0.4780447   0.7381553  )
         2           Ta  tau(   2) = (   0.3360011   0.1939903   0.7381553  )
         3           Ta  tau(   3) = (   0.6639989   0.1939903   0.7381553  )
         4           Ta  tau(   4) = (   0.0000000   0.7760728   0.7381553  )
         5           Ta  tau(   5) = (  -0.1720988   0.4779890   0.7381553  )
         6           Ta  tau(   6) = (   0.1720988   0.4779890   0.7381553  )
         7           Ta  tau(   7) = (   0.3390981   0.7731287   0.7381553  )
         8           Ta  tau(   8) = (  -0.3390981   0.7731287   0.7381553  )
         9           Ta  tau(   9) = (   0.0000000   0.1857935   0.7381553  )
        10           S   tau(  10) = (   0.1664686   0.6734609   0.5852802  )
        11           S   tau(  11) = (   0.1664686   0.6734609   0.8910304  )
        12           S   tau(  12) = (  -0.1664686   0.6734609   0.5852802  )
        13           S   tau(  13) = (  -0.1664686   0.6734609   0.8910304  )
        14           S   tau(  14) = (   0.0000000   0.3851289   0.5852802  )
        15           S   tau(  15) = (   0.0000000   0.3851289   0.8910304  )
        16           S   tau(  16) = (   0.6658078   0.3844043   0.5792057  )
        17           S   tau(  17) = (   0.6658078   0.3844043   0.8971049  )
        18           S   tau(  18) = (   0.3341922   0.3844043   0.5792057  )
        19           S   tau(  19) = (   0.3341922   0.3844043   0.8971049  )
        20           S   tau(  20) = (   0.5000000   0.0972168   0.5792057  )
        21           S   tau(  21) = (   0.5000000   0.0972168   0.8971049  )
        22           S   tau(  22) = (   0.5000000   0.6708099   0.5812241  )
        23           S   tau(  23) = (   0.5000000   0.6708099   0.8950865  )
        24           S   tau(  24) = (   0.1690616   0.0976077   0.5812241  )
        25           S   tau(  25) = (   0.1690616   0.0976077   0.8950865  )
        26           S   tau(  26) = (   0.8309384   0.0976077   0.5812241  )
        27           S   tau(  27) = (   0.8309384   0.0976077   0.8950865  )

     number of k points=    19  Fermi-Dirac smearing, width (Ry)=  0.0050
                       cart. coord. in units 2pi/alat
        k(    1) = (   0.0000000   0.0000000   0.0000000), wk =   0.0138889
        k(    2) = (   0.0000000   0.0962250   0.0000000), wk =   0.0833333
        k(    3) = (   0.0000000   0.1924501   0.0000000), wk =   0.0833333
        k(    4) = (   0.0000000   0.2886751   0.0000000), wk =   0.0833333
        k(    5) = (   0.0000000   0.3849002   0.0000000), wk =   0.0833333
        k(    6) = (   0.0000000   0.4811252   0.0000000), wk =   0.0833333
        k(    7) = (   0.0000000  -0.5773503   0.0000000), wk =   0.0416667
        k(    8) = (   0.0833333   0.1443376   0.0000000), wk =   0.0833333
        k(    9) = (   0.0833333   0.2405626   0.0000000), wk =   0.1666667
        k(   10) = (   0.0833333   0.3367877   0.0000000), wk =   0.1666667
        k(   11) = (   0.0833333   0.4330127   0.0000000), wk =   0.1666667
        k(   12) = (   0.0833333   0.5292377   0.0000000), wk =   0.1666667
        k(   13) = (   0.1666667   0.2886751   0.0000000), wk =   0.0833333
        k(   14) = (   0.1666667   0.3849002   0.0000000), wk =   0.1666667
        k(   15) = (   0.1666667   0.4811252   0.0000000), wk =   0.1666667
        k(   16) = (   0.1666667   0.5773503   0.0000000), wk =   0.0833333
        k(   17) = (   0.2500000   0.4330127   0.0000000), wk =   0.0833333
        k(   18) = (   0.2500000   0.5292377   0.0000000), wk =   0.1666667
        k(   19) = (   0.3333333   0.5773503   0.0000000), wk =   0.0277778

     Dense  grid:  1222357 G-vectors     FFT dimensions: ( 125, 125, 192)

     Estimated max dynamical RAM per process >     237.63 MB

     Estimated total dynamical RAM >      11.95 GB

     Initial potential from superposition of free atoms

     starting charge     134.9924, renormalised to     153.0000

     negative rho (up, down):  4.640E-05 0.000E+00
     Starting wfcs are  243 randomized atomic wfcs

     total cpu time spent up to now is       23.8 secs

     Self-consistent Calculation

     iteration #  1     ecut=   100.00 Ry     beta= 0.70
     Davidson diagonalization with overlap
     ethr =  1.00E-02,  avg # of iterations =  2.0

     total cpu time spent up to now is       50.2 secs

     total energy              =    -454.41907070 Ry
     estimated scf accuracy    <       8.87447412 Ry

     iteration #  2     ecut=   100.00 Ry     beta= 0.70
     Davidson diagonalization with overlap
     ethr =  5.80E-03,  avg # of iterations =  6.0

     total cpu time spent up to now is       96.0 secs

     total energy              =    -451.98690370 Ry
     estimated scf accuracy    <      61.36064655 Ry

     iteration #  3     ecut=   100.00 Ry     beta= 0.70
     Davidson diagonalization with overlap
     ethr =  5.80E-03,  avg # of iterations =  3.9

     total cpu time spent up to now is      128.6 secs

     total energy              =    -459.18092950 Ry
     estimated scf accuracy    <       0.92312299 Ry

     iteration #  4     ecut=   100.00 Ry     beta= 0.70
     Davidson diagonalization with overlap
     ethr =  6.03E-04,  avg # of iterations =  6.6

     total cpu time spent up to now is      170.2 secs

     total energy              =    -459.68590794 Ry
     estimated scf accuracy    <       1.09083033 Ry

     iteration #  5     ecut=   100.00 Ry     beta= 0.70
     Davidson diagonalization with overlap
     ethr =  6.03E-04,  avg # of iterations =  2.0

     total cpu time spent up to now is      193.6 secs

     total energy              =    -459.75060196 Ry
     estimated scf accuracy    <       0.23289577 Ry

     iteration #  6     ecut=   100.00 Ry     beta= 0.70
     Davidson diagonalization with overlap
     ethr =  1.52E-04,  avg # of iterations =  6.0

     total cpu time spent up to now is      222.6 secs

     total energy              =    -459.76734637 Ry
     estimated scf accuracy    <       0.15996544 Ry

     iteration #  7     ecut=   100.00 Ry     beta= 0.70
     Davidson diagonalization with overlap
     ethr =  1.05E-04,  avg # of iterations =  1.9

     total cpu time spent up to now is      245.3 secs

     total energy              =    -459.77578069 Ry
     estimated scf accuracy    <       0.04874906 Ry

     iteration #  8     ecut=   100.00 Ry     beta= 0.70
     Davidson diagonalization with overlap
     c_bands:  1 eigenvalues not converged
     ethr =  3.19E-05,  avg # of iterations = 10.9

     total cpu time spent up to now is      282.6 secs

     total energy              =    -459.78275902 Ry
     estimated scf accuracy    <       0.00705550 Ry

     iteration #  9     ecut=   100.00 Ry     beta= 0.70
     Davidson diagonalization with overlap
     c_bands:  2 eigenvalues not converged
     c_bands:  2 eigenvalues not converged
     c_bands:  4 eigenvalues not converged
     c_bands:  1 eigenvalues not converged
     c_bands:  2 eigenvalues not converged
     c_bands:  2 eigenvalues not converged
     ethr =  4.61E-06,  avg # of iterations = 21.9

     negative rho (up, down):  4.127E-08 0.000E+00

     total cpu time spent up to now is      349.9 secs

     total energy              =    -459.78616665 Ry
     estimated scf accuracy    <       0.00352226 Ry

     iteration # 10     ecut=   100.00 Ry     beta= 0.70
     Davidson diagonalization with overlap
     c_bands:  1 eigenvalues not converged
     c_bands:  1 eigenvalues not converged
     c_bands:  1 eigenvalues not converged
     c_bands:  2 eigenvalues not converged
     ethr =  2.30E-06,  avg # of iterations = 14.3

     total cpu time spent up to now is      384.9 secs

     total energy              =    -459.78626459 Ry
     estimated scf accuracy    <       0.00082180 Ry

     iteration # 11     ecut=   100.00 Ry     beta= 0.70
     Davidson diagonalization with overlap
     c_bands:  2 eigenvalues not converged
     c_bands:  1 eigenvalues not converged
     ethr =  5.37E-07,  avg # of iterations =  8.1

     total cpu time spent up to now is      418.7 secs

     total energy              =    -459.78641827 Ry
     estimated scf accuracy    <       0.00004463 Ry

     iteration # 12     ecut=   100.00 Ry     beta= 0.70
     Davidson diagonalization with overlap
     ethr =  2.92E-08,  avg # of iterations = 10.8

     total cpu time spent up to now is      478.9 secs

     total energy              =    -459.78644882 Ry
     estimated scf accuracy    <       0.00023948 Ry

     iteration # 13     ecut=   100.00 Ry     beta= 0.70
     Davidson diagonalization with overlap
     ethr =  2.92E-08,  avg # of iterations =  5.7

     total cpu time spent up to now is      513.2 secs

     total energy              =    -459.78647777 Ry
     estimated scf accuracy    <       0.00000564 Ry

     iteration # 14     ecut=   100.00 Ry     beta= 0.70
     Davidson diagonalization with overlap
     ethr =  3.69E-09,  avg # of iterations =  7.2

     total cpu time spent up to now is      556.7 secs

     total energy              =    -459.78648183 Ry
     estimated scf accuracy    <       0.00000571 Ry

     iteration # 15     ecut=   100.00 Ry     beta= 0.70
     Davidson diagonalization with overlap
     ethr =  3.69E-09,  avg # of iterations =  1.3

     total cpu time spent up to now is      578.7 secs

     total energy              =    -459.78648170 Ry
     estimated scf accuracy    <       0.00000280 Ry

     iteration # 16     ecut=   100.00 Ry     beta= 0.70
     Davidson diagonalization with overlap
     ethr =  1.83E-09,  avg # of iterations =  1.9

     total cpu time spent up to now is      601.2 secs

     total energy              =    -459.78648162 Ry
     estimated scf accuracy    <       0.00000089 Ry

     iteration # 17     ecut=   100.00 Ry     beta= 0.70
     Davidson diagonalization with overlap
     ethr =  5.80E-10,  avg # of iterations =  5.5

     total cpu time spent up to now is      633.4 secs

     total energy              =    -459.78648186 Ry
     estimated scf accuracy    <       0.00000012 Ry

     iteration # 18     ecut=   100.00 Ry     beta= 0.70
     Davidson diagonalization with overlap
     ethr =  7.83E-11,  avg # of iterations =  6.0

     total cpu time spent up to now is      668.2 secs

     total energy              =    -459.78648191 Ry
     estimated scf accuracy    <       0.00000010 Ry

     iteration # 19     ecut=   100.00 Ry     beta= 0.70
     Davidson diagonalization with overlap
     ethr =  6.32E-11,  avg # of iterations =  1.1

     total cpu time spent up to now is      689.5 secs

     total energy              =    -459.78648190 Ry
     estimated scf accuracy    <       0.00000007 Ry

     iteration # 20     ecut=   100.00 Ry     beta= 0.70
     Davidson diagonalization with overlap
     ethr =  4.36E-11,  avg # of iterations =  2.0

     total cpu time spent up to now is      712.6 secs

     total energy              =    -459.78648190 Ry
     estimated scf accuracy    <       0.00000001 Ry

     iteration # 21     ecut=   100.00 Ry     beta= 0.70
     Davidson diagonalization with overlap
     ethr =  6.87E-12,  avg # of iterations =  5.6

     total cpu time spent up to now is      748.9 secs

     total energy              =    -459.78648190 Ry
     estimated scf accuracy    <          8.3E-10 Ry

     iteration # 22     ecut=   100.00 Ry     beta= 0.70
     Davidson diagonalization with overlap
     c_bands:  1 eigenvalues not converged
     ethr =  5.40E-13,  avg # of iterations =  7.8

     total cpu time spent up to now is      786.2 secs

     total energy              =    -459.78648190 Ry
     estimated scf accuracy    <          3.8E-11 Ry

     iteration # 23     ecut=   100.00 Ry     beta= 0.70
     Davidson diagonalization with overlap
     ethr =  1.00E-13,  avg # of iterations =  6.5

     total cpu time spent up to now is      819.3 secs

     total energy              =    -459.78648190 Ry
     estimated scf accuracy    <          5.5E-12 Ry

     iteration # 24     ecut=   100.00 Ry     beta= 0.70
     Davidson diagonalization with overlap
     ethr =  1.00E-13,  avg # of iterations =  1.0

     total cpu time spent up to now is      840.5 secs

     total energy              =    -459.78648190 Ry
     estimated scf accuracy    <          2.2E-12 Ry

     iteration # 25     ecut=   100.00 Ry     beta= 0.70
     Davidson diagonalization with overlap
     ethr =  1.00E-13,  avg # of iterations =  1.0

     total cpu time spent up to now is      861.7 secs

     total energy              =    -459.78648190 Ry
     estimated scf accuracy    <          5.5E-13 Ry

     iteration # 26     ecut=   100.00 Ry     beta= 0.70
     Davidson diagonalization with overlap
     ethr =  1.00E-13,  avg # of iterations =  1.0

     total cpu time spent up to now is      882.9 secs

     total energy              =    -459.78648190 Ry
     estimated scf accuracy    <          8.2E-14 Ry

     iteration # 27     ecut=   100.00 Ry     beta= 0.70
     Davidson diagonalization with overlap
     ethr =  1.00E-13,  avg # of iterations =  1.0

     total cpu time spent up to now is      904.2 secs

     total energy              =    -459.78648190 Ry
     estimated scf accuracy    <          6.7E-14 Ry

     iteration # 28     ecut=   100.00 Ry     beta= 0.70
     Davidson diagonalization with overlap
     ethr =  1.00E-13,  avg # of iterations =  1.0

     total cpu time spent up to now is      925.4 secs

     total energy              =    -459.78648190 Ry
     estimated scf accuracy    <          6.2E-14 Ry

     iteration # 29     ecut=   100.00 Ry     beta= 0.70
     Davidson diagonalization with overlap
     ethr =  1.00E-13,  avg # of iterations =  1.0

     total cpu time spent up to now is      946.6 secs

     total energy              =    -459.78648190 Ry
     estimated scf accuracy    <          4.3E-14 Ry

     iteration # 30     ecut=   100.00 Ry     beta= 0.70
     Davidson diagonalization with overlap
     ethr =  1.00E-13,  avg # of iterations =  1.0

     total cpu time spent up to now is      967.9 secs

     total energy              =    -459.78648190 Ry
     estimated scf accuracy    <          5.1E-15 Ry

     iteration # 31     ecut=   100.00 Ry     beta= 0.70
     Davidson diagonalization with overlap
     ethr =  1.00E-13,  avg # of iterations =  1.0

     total cpu time spent up to now is      989.1 secs

     total energy              =    -459.78648190 Ry
     estimated scf accuracy    <          1.6E-15 Ry

     iteration # 32     ecut=   100.00 Ry     beta= 0.70
     Davidson diagonalization with overlap
     ethr =  1.00E-13,  avg # of iterations =  1.0

     total cpu time spent up to now is     1010.2 secs

     End of self-consistent calculation

          k = 0.0000 0.0000 0.0000 (152785 PWs)   bands (ev):

   -14.4292 -13.3687 -13.3592 -13.3592 -13.3524 -13.3524 -13.3370 -13.0761
   -12.7039 -12.7039 -12.6985 -12.6985 -12.6703 -12.6184 -12.6184 -12.5946
   -12.3579 -12.3579  -5.9873  -5.5585  -5.5585  -5.5531  -5.4917  -5.4917
    -5.4832  -5.3356  -5.3191  -5.1361  -5.1361  -4.5942  -4.5701  -4.5701
    -4.5091  -4.5091  -4.5045  -4.4156  -4.3709  -4.3709  -4.3558  -4.2954
    -4.2457  -4.1987  -4.1987  -4.0190  -4.0190  -3.3375  -3.3375  -3.1979
    -3.1944  -3.1944  -3.0834  -3.0189  -3.0189  -2.9439  -2.9439  -2.4135
    -2.4135  -2.2358  -2.1761  -2.1567  -2.1567  -2.1198  -2.1198  -2.0707
    -2.0707  -2.0571  -1.9285  -1.8999  -1.8999  -1.8475  -1.8411  -1.8411
    -0.9618  -0.9236  -0.9236  -0.8745  -0.8538  -0.8538   0.0850   0.1105
     0.4130   1.6733   1.6733   2.3390   2.3390   2.4168   2.4619   2.4620
     2.4775   2.4775   2.5699   2.5741

          k = 0.0000 0.0962 0.0000 (152927 PWs)   bands (ev):

   -14.4196 -13.4847 -13.4151 -13.4130 -13.2895 -13.2888 -13.2317 -13.0724
   -12.7281 -12.7086 -12.7053 -12.7053 -12.6565 -12.6320 -12.6110 -12.5720
   -12.3608 -12.3601  -5.9749  -5.7050  -5.6139  -5.5897  -5.4384  -5.4234
    -5.3422  -5.3222  -5.3060  -5.1878  -5.1824  -4.6419  -4.5943  -4.5918
    -4.4940  -4.4842  -4.4715  -4.4450  -4.4055  -4.3551  -4.3483  -4.3094
    -4.2075  -4.1674  -4.0671  -4.0066  -4.0024  -3.3504  -3.3499  -3.2505
    -3.2130  -3.1695  -3.1309  -3.0318  -2.9780  -2.9618  -2.9352  -2.4029
    -2.3992  -2.2857  -2.2037  -2.1950  -2.1589  -2.1386  -2.1056  -2.0937
    -2.0794  -2.0460  -1.9446  -1.9035  -1.8869  -1.8768  -1.8427  -1.7741
    -0.9605  -0.9283  -0.9176  -0.8574  -0.8225  -0.7939   0.0545   0.0779
     0.4024   1.7148   1.7160   2.3202   2.3232   2.3978   2.4363   2.4661
     2.4673   2.4995   2.5144   2.5411

          k = 0.0000 0.1925 0.0000 (152915 PWs)   bands (ev):

   -14.3912 -13.6166 -13.4657 -13.4637 -13.2182 -13.2176 -13.1239 -13.0614
   -12.7684 -12.7257 -12.7255 -12.7190 -12.6682 -12.6145 -12.5926 -12.5419
   -12.3694 -12.3664  -5.9387  -5.8533  -5.6762  -5.6551  -5.3397  -5.3319
    -5.2931  -5.2930  -5.2824  -5.2674  -5.2155  -4.6768  -4.6331  -4.6242
    -4.5992  -4.4802  -4.4512  -4.4510  -4.4410  -4.3801  -4.2454  -4.2284
    -4.1122  -4.1041  -3.9426  -3.9242  -3.8850  -3.3831  -3.3826  -3.3057
    -3.2552  -3.2407  -3.1393  -3.0767  -3.0727  -2.9096  -2.8727  -2.3817
    -2.3779  -2.3616  -2.3004  -2.2835  -2.2227  -2.1755  -2.1567  -2.1267
    -2.0745  -1.9990  -1.9551  -1.9357  -1.8998  -1.8286  -1.8225  -1.7000
    -0.9501  -0.9069  -0.8868  -0.7987  -0.7551  -0.6817  -0.0244  -0.0069
     0.3698   1.8219   1.8285   2.2693   2.2733   2.3634   2.3849   2.4422
     2.4650   2.4685   2.5426   2.5634

          k = 0.0000 0.2887 0.0000 (152931 PWs)   bands (ev):

   -14.3442 -13.7481 -13.5065 -13.5043 -13.1439 -13.1436 -13.0436 -13.0332
   -12.8126 -12.7588 -12.7583 -12.7298 -12.6852 -12.5865 -12.5692 -12.5170
   -12.3827 -12.3754  -5.9825  -5.8744  -5.7191  -5.6974  -5.4306  -5.4161
    -5.2422  -5.2182  -5.2155  -5.2051  -5.2047  -4.7078  -4.6756  -4.6735
    -4.5765  -4.5738  -4.5572  -4.4049  -4.3935  -4.3321  -4.1951  -4.1927
    -4.0334  -4.0208  -3.7764  -3.7495  -3.6921  -3.4248  -3.4215  -3.3573
    -3.3185  -3.2993  -3.2303  -3.1673  -3.1382  -2.8685  -2.7666  -2.4788
    -2.4745  -2.3869  -2.3360  -2.3181  -2.3159  -2.3121  -2.2443  -2.1625
    -2.0621  -1.9874  -1.9552  -1.9330  -1.8831  -1.7734  -1.7717  -1.6405
    -0.9233  -0.8565  -0.8347  -0.7335  -0.6785  -0.5396  -0.1249  -0.1176
     0.3126   1.9520   1.9721   2.2076   2.2082   2.3315   2.3442   2.4158
     2.4335   2.4838   2.5361   2.5500

          k = 0.0000 0.3849 0.0000 (152889 PWs)   bands (ev):

   -14.2798 -13.8751 -13.5363 -13.5341 -13.0691 -13.0690 -13.0195 -12.9648
   -12.8572 -12.8033 -12.8024 -12.7385 -12.6975 -12.5591 -12.5449 -12.5019
   -12.3990 -12.3845  -6.0762  -5.7931  -5.7387  -5.7147  -5.5416  -5.5237
    -5.3114  -5.1355  -5.1326  -5.1220  -5.1194  -4.7894  -4.7143  -4.7109
    -4.6808  -4.6689  -4.3962  -4.3587  -4.3458  -4.2971  -4.2001  -4.1924
    -3.9656  -3.9368  -3.5397  -3.5240  -3.5163  -3.4578  -3.4428  -3.4251
    -3.4002  -3.3777  -3.3295  -3.2116  -3.2108  -2.8160  -2.6489  -2.6411
    -2.5764  -2.5166  -2.5042  -2.4724  -2.3620  -2.2784  -2.2658  -2.1606
    -2.1230  -2.0013  -1.9477  -1.9084  -1.8321  -1.7196  -1.7148  -1.6011
    -0.8868  -0.7970  -0.7783  -0.6798  -0.6046  -0.3859  -0.2317  -0.2159
     0.2273   2.0344   2.0665   2.1876   2.1889   2.2996   2.3456   2.4018
     2.4036   2.4921   2.5284   2.5762

          k = 0.0000 0.4811 0.0000 (152797 PWs)   bands (ev):

   -14.1989 -13.9943 -13.5545 -13.5522 -12.9972 -12.9966 -12.9914 -12.9232
   -12.8983 -12.8572 -12.8545 -12.7441 -12.7049 -12.5348 -12.5243 -12.4992
   -12.4145 -12.3908  -6.1347  -5.7331  -5.7164  -5.6835  -5.6293  -5.6095
    -5.4338  -5.0653  -5.0438  -5.0301  -5.0229  -4.8421  -4.7967  -4.7823
    -4.7515  -4.7446  -4.3231  -4.3016  -4.2875  -4.2305  -4.2130  -4.1471
    -3.9130  -3.8722  -3.6476  -3.5022  -3.4861  -3.4291  -3.4119  -3.3865
    -3.3285  -3.2786  -3.2606  -3.2513  -3.2090  -2.8179  -2.7856  -2.7393
    -2.7194  -2.6289  -2.5380  -2.5284  -2.4476  -2.2708  -2.2528  -2.1810
    -2.1514  -2.0040  -1.9542  -1.8922  -1.7835  -1.6880  -1.6687  -1.5789
    -0.8561  -0.7448  -0.7342  -0.6472  -0.5369  -0.3329  -0.3280  -0.1825
     0.1134   2.0317   2.0540   2.1993   2.2292   2.3556   2.3635   2.3739
     2.4173   2.4856   2.5255   2.5442

          k = 0.0000-0.5774 0.0000 (152718 PWs)   bands (ev):

   -14.1067 -14.0993 -13.5606 -13.5583 -12.9723 -12.9438 -12.9433 -12.9218
   -12.9218 -12.9038 -12.8890 -12.7460 -12.7073 -12.5212 -12.5154 -12.5038
   -12.4217 -12.3928  -6.1544  -5.7132  -5.6901  -5.6771  -5.6607  -5.5920
    -5.5362  -5.0367  -5.0125  -4.9291  -4.9241  -4.9073  -4.8979  -4.8429
    -4.7690  -4.7599  -4.3074  -4.2753  -4.2632  -4.2538  -4.2319  -3.9673
    -3.8923  -3.8467  -3.8297  -3.5051  -3.4977  -3.4402  -3.4217  -3.3806
    -3.3484  -3.2674  -3.1019  -3.0479  -3.0458  -2.9784  -2.9456  -2.9418
    -2.6974  -2.6772  -2.5604  -2.4833  -2.4464  -2.3335  -2.2448  -2.1794
    -2.1451  -2.0065  -1.9586  -1.8866  -1.7630  -1.6797  -1.6514  -1.5712
    -0.8442  -0.7217  -0.7172  -0.6377  -0.4945  -0.3887  -0.3488  -0.0555
    -0.0034   2.0224   2.0420   2.1933   2.2475   2.3627   2.3754   2.4111
     2.4504   2.4806   2.4817   2.5129

          k = 0.0833 0.1443 0.0000 (152889 PWs)   bands (ev):

   -14.4006 -13.5491 -13.5411 -13.3416 -13.3328 -13.1816 -13.1650 -13.0651
   -12.7542 -12.7231 -12.7213 -12.7165 -12.6473 -12.6366 -12.5946 -12.5497
   -12.3668 -12.3642  -5.9504  -5.7909  -5.7473  -5.5071  -5.4897  -5.2982
    -5.2960  -5.2797  -5.2726  -5.2658  -5.2312  -4.6784  -4.6488  -4.5662
    -4.5583  -4.5070  -4.5043  -4.4263  -4.4000  -4.3416  -4.2722  -4.2483
    -4.2473  -4.0375  -3.9769  -3.9534  -3.9463  -3.3742  -3.3712  -3.2911
    -3.2434  -3.2124  -3.1601  -3.0443  -3.0261  -2.9181  -2.9140  -2.3860
    -2.3733  -2.3513  -2.2707  -2.2570  -2.2167  -2.1535  -2.1376  -2.0841
    -2.0839  -2.0120  -1.9722  -1.9249  -1.8977  -1.8418  -1.8336  -1.7178
    -0.9472  -0.9311  -0.8838  -0.8317  -0.7548  -0.7253  -0.0009   0.0205
     0.3809   1.7865   1.7958   2.2835   2.2984   2.3667   2.3899   2.4490
     2.4646   2.4973   2.5290   2.5432

          k = 0.0833 0.2406 0.0000 (152861 PWs)   bands (ev):

   -14.3629 -13.6773 -13.5955 -13.3777 -13.2552 -13.1125 -13.0714 -13.0506
   -12.7914 -12.7525 -12.7432 -12.7384 -12.6568 -12.6140 -12.5714 -12.5247
   -12.3782 -12.3713  -5.9220  -5.8937  -5.8128  -5.5547  -5.4165  -5.3812
    -5.3455  -5.2471  -5.2261  -5.2089  -5.1796  -4.6864  -4.6671  -4.6447
    -4.5995  -4.5839  -4.4734  -4.4152  -4.3831  -4.3485  -4.2144  -4.2075
    -4.1952  -3.9235  -3.8748  -3.7951  -3.7829  -3.4118  -3.4061  -3.3393
    -3.2920  -3.2841  -3.2020  -3.1701  -3.0342  -2.8850  -2.8413  -2.4448
    -2.4210  -2.3596  -2.3404  -2.3262  -2.3157  -2.2306  -2.1618  -2.1412
    -2.0636  -1.9874  -1.9829  -1.9503  -1.8936  -1.8026  -1.7860  -1.6555
    -0.9252  -0.8901  -0.8418  -0.7762  -0.6726  -0.6102  -0.0942  -0.0709
     0.3360   1.9031   1.9247   2.2248   2.2520   2.3214   2.3546   2.4215
     2.4357   2.4951   2.5241   2.5609

          k = 0.0833 0.3368 0.0000 (152826 PWs)   bands (ev):

   -14.3072 -13.8066 -13.6346 -13.4088 -13.1710 -13.0480 -13.0296 -12.9920
   -12.8341 -12.7978 -12.7705 -12.7586 -12.6673 -12.5847 -12.5483 -12.5060
   -12.3935 -12.3799  -6.0245  -5.8463  -5.8207  -5.5947  -5.5393  -5.4394
    -5.2761  -5.2460  -5.1795  -5.1460  -5.1320  -4.7616  -4.6921  -4.6898
    -4.6282  -4.5296  -4.5006  -4.4195  -4.3456  -4.3093  -4.1985  -4.1851
    -4.1544  -3.8279  -3.6848  -3.5988  -3.5684  -3.4509  -3.4386  -3.3840
    -3.3591  -3.3440  -3.3225  -3.2523  -3.0831  -2.8384  -2.7397  -2.5680
    -2.5520  -2.4910  -2.4486  -2.3398  -2.3064  -2.2908  -2.2680  -2.1643
    -2.1030  -2.0064  -1.9679  -1.9273  -1.8548  -1.7545  -1.7250  -1.6068
    -0.8912  -0.8313  -0.7923  -0.7114  -0.6007  -0.4651  -0.1975  -0.1724
     0.2648   2.0164   2.0457   2.1754   2.2104   2.2915   2.3397   2.4002
     2.4174   2.4885   2.5149   2.5674

          k = 0.0833 0.4330 0.0000 (152798 PWs)   bands (ev):

   -14.2345 -13.9298 -13.6611 -13.4301 -13.0868 -13.0032 -12.9857 -12.9365
   -12.8767 -12.8544 -12.8112 -12.7688 -12.6745 -12.5557 -12.5281 -12.4985
   -12.4096 -12.3871  -6.1003  -5.8397  -5.7327  -5.6592  -5.6047  -5.5155
    -5.3628  -5.1765  -5.0964  -5.0906  -5.0435  -4.8310  -4.7868  -4.6899
    -4.6676  -4.6574  -4.3650  -4.3200  -4.3043  -4.2651  -4.2102  -4.2018
    -4.1014  -3.7469  -3.5532  -3.5047  -3.4825  -3.4510  -3.4240  -3.4103
    -3.3929  -3.3365  -3.3082  -3.2815  -3.1446  -2.7891  -2.7376  -2.7105
    -2.6221  -2.6113  -2.5366  -2.5159  -2.4095  -2.2834  -2.2392  -2.1845
    -2.1532  -2.0033  -1.9490  -1.9339  -1.8002  -1.7088  -1.6740  -1.5750
    -0.8557  -0.7797  -0.7407  -0.6566  -0.5407  -0.3433  -0.2844  -0.2346
     0.1652   2.0436   2.0750   2.1871   2.2165   2.3190   2.3412   2.3989
     2.4045   2.4823   2.5156   2.5773

          k = 0.0833 0.5292 0.0000 (152718 PWs)   bands (ev):

   -14.1462 -14.0437 -13.6746 -13.4409 -13.0065 -12.9763 -12.9427 -12.9140
   -12.9122 -12.9014 -12.8568 -12.7739 -12.6782 -12.5313 -12.5165 -12.5020
   -12.4212 -12.3909  -6.1392  -5.8089  -5.7451  -5.6264  -5.6012  -5.5685
    -5.4868  -5.1176  -5.0688  -5.0025  -4.9278  -4.9010  -4.8488  -4.7894
    -4.7019  -4.6827  -4.3170  -4.2952  -4.2686  -4.2458  -4.2262  -4.0694
    -4.0491  -3.7746  -3.6970  -3.5089  -3.4980  -3.4432  -3.4221  -3.3834
    -3.3540  -3.2186  -3.2064  -3.1338  -3.0488  -2.9400  -2.9041  -2.7735
    -2.7125  -2.6659  -2.5829  -2.5088  -2.4686  -2.3413  -2.2501  -2.1840
    -2.1410  -1.9997  -1.9469  -1.9388  -1.7649  -1.6819  -1.6487  -1.5576
    -0.8334  -0.7507  -0.6988  -0.6313  -0.4880  -0.3784  -0.3419  -0.1160
     0.0404   2.0258   2.0619   2.1949   2.2277   2.3543   2.3929   2.3973
     2.4249   2.4778   2.4928   2.5147

          k = 0.1667 0.2887 0.0000 (152845 PWs)   bands (ev):

   -14.3164 -13.7285 -13.7232 -13.2906 -13.2811 -13.0331 -13.0313 -13.0107
   -12.8183 -12.7960 -12.7771 -12.7595 -12.6353 -12.6129 -12.5481 -12.5077
   -12.3921 -12.3776  -5.9644  -5.9236  -5.8360  -5.5477  -5.4456  -5.4278
    -5.4011  -5.1983  -5.1965  -5.1689  -5.1529  -4.7491  -4.7012  -4.6212
    -4.6003  -4.5418  -4.4860  -4.3934  -4.3432  -4.3131  -4.3103  -4.2001
    -4.1809  -3.7548  -3.7425  -3.6610  -3.5817  -3.4484  -3.4333  -3.3771
    -3.3534  -3.3201  -3.3157  -3.2660  -2.9833  -2.8467  -2.8271  -2.5467
    -2.5394  -2.4819  -2.4423  -2.3192  -2.3116  -2.2666  -2.1666  -2.1434
    -2.1032  -2.0806  -2.0108  -1.8956  -1.8791  -1.7685  -1.7292  -1.6056
    -0.8843  -0.8501  -0.7926  -0.7330  -0.5555  -0.5315  -0.1881  -0.1514
     0.2773   2.0040   2.0342   2.1790   2.2356   2.2862   2.3284   2.3969
     2.4065   2.4964   2.5228   2.5505

          k = 0.1667 0.3849 0.0000 (152808 PWs)   bands (ev):

   -14.2525 -13.8516 -13.7613 -13.3086 -13.1922 -13.0095 -12.9752 -12.9482
   -12.8537 -12.8531 -12.7998 -12.7879 -12.6339 -12.5875 -12.5288 -12.4985
   -12.4077 -12.3835  -6.0396  -5.9439  -5.7549  -5.6731  -5.4781  -5.4524
    -5.3297  -5.2779  -5.1775  -5.1317  -5.0526  -4.8275  -4.7842  -4.5753
    -4.5543  -4.4990  -4.4412  -4.4255  -4.3150  -4.2992  -4.2833  -4.2096
    -4.1967  -3.6397  -3.5554  -3.5385  -3.5013  -3.4864  -3.4315  -3.4068
    -3.3954  -3.3466  -3.3265  -3.3052  -3.0008  -2.8013  -2.7630  -2.6827
    -2.6821  -2.6187  -2.5316  -2.3930  -2.3039  -2.2931  -2.2243  -2.2050
    -2.1537  -2.0907  -2.0047  -1.8889  -1.8338  -1.7208  -1.6721  -1.5643
    -0.8457  -0.8008  -0.7471  -0.6717  -0.4887  -0.4100  -0.2663  -0.2334
     0.1918   2.0668   2.0855   2.1532   2.2366   2.2968   2.3401   2.3829
     2.3932   2.4805   2.5099   2.5903

          k = 0.1667 0.4811 0.0000 (152784 PWs)   bands (ev):

   -14.1724 -13.9697 -13.7830 -13.3222 -13.1002 -12.9822 -12.9429 -12.9124
   -12.9017 -12.8902 -12.8223 -12.8112 -12.6367 -12.5570 -12.5168 -12.5006
   -12.4205 -12.3872  -6.0945  -5.9210  -5.7815  -5.6538  -5.5031  -5.4860
    -5.4012  -5.2502  -5.1790  -5.0557  -4.9314  -4.8941  -4.8509  -4.6428
    -4.5899  -4.5331  -4.3762  -4.3010  -4.2752  -4.2709  -4.2464  -4.2214
    -4.1820  -3.7140  -3.5829  -3.5161  -3.4968  -3.4461  -3.4202  -3.3843
    -3.3559  -3.3387  -3.2340  -3.0595  -3.0520  -2.8828  -2.8427  -2.7477
    -2.6975  -2.6510  -2.5959  -2.5205  -2.4502  -2.3667  -2.2612  -2.1907
    -2.1351  -2.0803  -1.9897  -1.9099  -1.7946  -1.6791  -1.6334  -1.5360
    -0.8169  -0.7660  -0.7049  -0.6194  -0.4579  -0.3651  -0.3223  -0.1999
     0.0802   2.0476   2.0915   2.1706   2.2235   2.3463   2.3709   2.3912
     2.4149   2.4640   2.5023   2.5057

          k = 0.1667 0.5774 0.0000 (152766 PWs)   bands (ev):

   -14.0809 -14.0739 -13.7902 -13.3268 -13.0201 -13.0043 -12.9641 -12.9120
   -12.8991 -12.8796 -12.8501 -12.8147 -12.6378 -12.5368 -12.5208 -12.5024
   -12.4255 -12.3884  -6.1134  -5.8771  -5.8543  -5.5607  -5.5114  -5.5082
    -5.4933  -5.2210  -5.1791  -4.9786  -4.9689  -4.8746  -4.8052  -4.7753
    -4.6013  -4.5216  -4.3252  -4.3103  -4.2773  -4.2597  -4.2462  -4.2334
    -4.0104  -3.8932  -3.5739  -3.5278  -3.4754  -3.4565  -3.4255  -3.3869
    -3.3635  -3.1452  -3.1414  -3.0762  -3.0553  -2.9601  -2.8085  -2.7783
    -2.7379  -2.6706  -2.6304  -2.5649  -2.4795  -2.4546  -2.2611  -2.1850
    -2.1228  -2.0762  -1.9758  -1.9279  -1.7803  -1.6619  -1.6219  -1.5250
    -0.8060  -0.7541  -0.6831  -0.6042  -0.4255  -0.4075  -0.3411  -0.0846
    -0.0301   2.0360   2.0865   2.1785   2.2179   2.3560   2.4087   2.4146
     2.4221   2.4507   2.4743   2.5774

          k = 0.2500 0.4330 0.0000 (152805 PWs)   bands (ev):

   -14.1811 -13.8846 -13.8797 -13.2127 -13.2016 -12.9846 -12.9430 -12.9118
   -12.9020 -12.8724 -12.8339 -12.8101 -12.6055 -12.5831 -12.5168 -12.5003
   -12.4202 -12.3855  -6.0367  -6.0023  -5.7938  -5.6639  -5.4588  -5.3888
    -5.3745  -5.3161  -5.2739  -5.0737  -4.9329  -4.8908  -4.8527  -4.5058
    -4.4970  -4.4464  -4.4357  -4.3789  -4.3622  -4.2977  -4.2632  -4.2331
    -4.2142  -3.6917  -3.5459  -3.5211  -3.4906  -3.4448  -3.4170  -3.3868
    -3.3830  -3.3543  -3.2695  -3.0633  -2.9338  -2.8383  -2.8200  -2.7690
    -2.7657  -2.7300  -2.5910  -2.4509  -2.3820  -2.3045  -2.2669  -2.2605
    -2.1931  -2.1328  -1.9862  -1.8664  -1.8378  -1.6731  -1.6263  -1.5263
    -0.8127  -0.7667  -0.7100  -0.6170  -0.4336  -0.3531  -0.3118  -0.2492
     0.0941   2.0734   2.0948   2.1462   2.2376   2.3488   2.3691   2.3770
     2.3911   2.4656   2.5014   2.5053

          k = 0.2500 0.5292 0.0000 (152763 PWs)   bands (ev):

   -14.0945 -13.9939 -13.8974 -13.2150 -13.1085 -13.0148 -12.9605 -12.8952
   -12.8914 -12.8750 -12.8500 -12.8335 -12.5992 -12.5593 -12.5240 -12.5012
   -12.4270 -12.3860  -6.0593  -5.9715  -5.8932  -5.5583  -5.4491  -5.4300
    -5.4171  -5.3268  -5.2994  -5.0099  -4.9452  -4.8993  -4.7927  -4.6324
    -4.4992  -4.4479  -4.3916  -4.3462  -4.3128  -4.2788  -4.2451  -4.2306
    -4.1344  -3.8971  -3.5545  -3.5406  -3.4635  -3.4369  -3.4194  -3.3904
    -3.3339  -3.2015  -3.1437  -2.9951  -2.9590  -2.9206  -2.8681  -2.7826
    -2.7007  -2.6907  -2.6304  -2.5217  -2.5190  -2.4862  -2.2755  -2.2697
    -2.1871  -2.1115  -1.9532  -1.8931  -1.8265  -1.6424  -1.6004  -1.5028
    -0.7956  -0.7447  -0.6888  -0.5761  -0.4366  -0.3869  -0.2806  -0.1640
    -0.0216   2.0638   2.0955   2.1392   2.2494   2.3541   2.3871   2.3892
     2.4377   2.4451   2.4546   2.4939

          k = 0.3333 0.5774 0.0000 (152790 PWs)   bands (ev):

   -14.0060 -14.0040 -13.9963 -13.1209 -13.1144 -13.0976 -12.9497 -12.8904
   -12.8752 -12.8731 -12.8712 -12.8374 -12.5702 -12.5688 -12.5365 -12.4996
   -12.4289 -12.3853  -6.0124  -5.9912  -5.9641  -5.4776  -5.4386  -5.4019
    -5.3923  -5.3896  -5.3831  -4.9755  -4.9632  -4.9333  -4.6724  -4.6086
    -4.6024  -4.4386  -4.3943  -4.3625  -4.2774  -4.2673  -4.2360  -4.1580
    -4.1205  -4.0454  -3.5575  -3.5492  -3.4676  -3.4320  -3.4149  -3.3951
    -3.2929  -3.0996  -3.0583  -3.0432  -3.0021  -2.9948  -2.8335  -2.7302
    -2.6807  -2.6542  -2.6274  -2.5523  -2.5180  -2.4905  -2.4858  -2.2723
    -2.1866  -2.1031  -1.9152  -1.8978  -1.8521  -1.6288  -1.5870  -1.4897
    -0.7891  -0.7337  -0.6883  -0.5517  -0.4325  -0.4174  -0.1794  -0.1787
    -0.0949   2.0829   2.0959   2.1106   2.2744   2.3548   2.3832   2.3907
     2.4251   2.4414   2.4681   2.4708

     the Fermi energy is    -0.5551 ev

!    total energy              =    -459.78648190 Ry
     estimated scf accuracy    <          3.9E-16 Ry
     smearing contrib. (-TS)   =      -0.01757274 Ry
     internal energy E=F+TS    =    -459.76890916 Ry

     The total energy is F=E-TS. E is the sum of the following terms:
     one-electron contribution =   -1841.35425228 Ry
     hartree contribution      =     959.20608214 Ry
     xc contribution           =    -108.38158673 Ry
     ewald contribution        =     530.76084771 Ry

     convergence has been achieved in  32 iterations

     Writing all to output data dir /fastscratch/tsievers/QE_TMP_DIR/TaS2_bench_nd_4_n_procs_54_0.save/
 
     init_run     :     22.94s CPU     23.56s WALL (       1 calls)
     electrons    :    982.79s CPU    987.41s WALL (       1 calls)

     Called by init_run:
     wfcinit      :     21.17s CPU     21.72s WALL (       1 calls)
     potinit      :      0.78s CPU      0.80s WALL (       1 calls)
     hinit0       :      0.54s CPU      0.55s WALL (       1 calls)

     Called by electrons:
     c_bands      :    848.88s CPU    851.77s WALL (      32 calls)
     sum_band     :    125.15s CPU    125.84s WALL (      32 calls)
     v_of_rho     :      5.36s CPU      5.39s WALL (      33 calls)
     mix_rho      :      1.82s CPU      1.94s WALL (      32 calls)

     Called by c_bands:
     init_us_2    :      8.14s CPU      8.18s WALL (     455 calls)
     init_us_2:cp :      8.13s CPU      8.18s WALL (     455 calls)
     cegterg      :    767.09s CPU    769.76s WALL (     227 calls)

     Called by *egterg:
     cdiaghg      :     15.77s CPU     15.82s WALL (    1357 calls)
     h_psi        :    615.57s CPU    618.15s WALL (    1364 calls)
     g_psi        :      2.37s CPU      2.38s WALL (    1130 calls)

     Called by h_psi:
     h_psi:calbec :     56.02s CPU     56.14s WALL (    1364 calls)
     vloc_psi     :    495.14s CPU    497.45s WALL (    1364 calls)
     add_vuspsi   :     58.81s CPU     58.89s WALL (    1364 calls)

     General routines
     calbec       :     56.01s CPU     56.14s WALL (    1364 calls)
     fft          :      3.82s CPU      3.83s WALL (     329 calls)
     ffts         :      0.38s CPU      0.38s WALL (      32 calls)
     fftw         :    431.49s CPU    433.36s WALL (  136482 calls)
 
     Parallel routines
 
     PWSCF        :  16m46.81s CPU  17m28.65s WALL

 
   This run was terminated on:  15:29: 1   4Jun2022            

=------------------------------------------------------------------------------=
   JOB DONE.
=------------------------------------------------------------------------------=
real 1053.31
user 20809.36
sys 89.17
