Module for intel-oneAPI 2021.4 loaded.
 
:: initializing oneAPI environment ...
   2811234: BASH_VERSION = 4.4.20(1)-release
:: advisor -- latest
:: ccl -- latest
:: clck -- latest
:: compiler -- latest
:: dal -- latest
:: debugger -- latest
:: dev-utilities -- latest
:: dnnl -- latest
:: dpcpp-ct -- latest
:: dpl -- latest
:: inspector -- latest
:: intelpython -- latest
:: ipp -- latest
:: ippcp -- latest
:: ipp -- latest
:: itac -- latest
:: LPOT -- latest
:: mkl -- latest
:: modelzoo -- latest
:: mpi -- latest
:: pytorch -- latest
:: tbb -- latest
:: tensorflow -- latest
:: vpl -- latest
:: vtune -- latest
:: oneAPI environment initialized ::
 

     Program PWSCF v.7.0 starts on  4Jun2022 at 20:29:10 

     This program is part of the open-source Quantum ESPRESSO suite
     for quantum simulation of materials; please cite
         "P. Giannozzi et al., J. Phys.:Condens. Matter 21 395502 (2009);
         "P. Giannozzi et al., J. Phys.:Condens. Matter 29 465901 (2017);
         "P. Giannozzi et al., J. Chem. Phys. 152 154105 (2020);
          URL http://www.quantum-espresso.org", 
     in publications or presentations arising from this work. More details at
     http://www.quantum-espresso.org/quote

     Parallel version (MPI), running on     4 processors

     MPI processes distributed on     1 nodes
     K-points division:     npool     =       2
     R & G space division:  proc/nbgrp/npool/nimage =       2
     1099 MiB available memory on the printing compute node when the environment starts
 
     Reading input from in_files/silicon_bench_intel_poolsize_2_n_procs_4_18.scf

     Current dimensions of program PWSCF are:
     Max number of different atomic species (ntypx) = 10
     Max number of k-points (npk) =  40000
     Max angular momentum in pseudopotentials (lmaxx) =  4

     Subspace diagonalization in iterative solution of the eigenvalue problem:
     a serial algorithm will be used

 
     Parallelization info
     --------------------
     sticks:   dense  smooth     PW     G-vecs:    dense   smooth      PW
     Min         501     501    150                10436    10436    1738
     Max         502     502    151                10439    10439    1741
     Sum        1003    1003    301                20875    20875    3479
 
     Using Slab Decomposition
 


     bravais-lattice index     =            2
     lattice parameter (alat)  =      10.2000  a.u.
     unit-cell volume          =     265.3020 (a.u.)^3
     number of atoms/cell      =            2
     number of atomic types    =            1
     number of electrons       =         8.00
     number of Kohn-Sham states=            4
     kinetic-energy cutoff     =      70.0000  Ry
     charge density cutoff     =     280.0000  Ry
     scf convergence threshold =      1.0E-12
     mixing beta               =       0.7000
     number of iterations used =            8  plain     mixing
     Exchange-correlation= PBE
                           (   1   4   3   4   0   0   0)

     celldm(1)=  10.200000  celldm(2)=   0.000000  celldm(3)=   0.000000
     celldm(4)=   0.000000  celldm(5)=   0.000000  celldm(6)=   0.000000

     crystal axes: (cart. coord. in units of alat)
               a(1) = (  -0.500000   0.000000   0.500000 )  
               a(2) = (   0.000000   0.500000   0.500000 )  
               a(3) = (  -0.500000   0.500000   0.000000 )  

     reciprocal axes: (cart. coord. in units 2 pi/alat)
               b(1) = ( -1.000000 -1.000000  1.000000 )  
               b(2) = (  1.000000  1.000000  1.000000 )  
               b(3) = ( -1.000000  1.000000 -1.000000 )  


     PseudoPot. # 1 for Si read from file:
     ./pseudos/Si_pbe_v0.4.1.nc.sr.upf
     MD5 check sum: 02fab3f35e82123ef5bf1cb05d5b1a5e
     Pseudo is Norm-conserving + core correction, Zval =  4.0
     Generated using ONCVPSP code by D. R. Hamann
     Using radial grid of 1510 points,  6 beta functions with: 
                l(1) =   0
                l(2) =   0
                l(3) =   1
                l(4) =   1
                l(5) =   2
                l(6) =   2

     atomic species   valence    mass     pseudopotential
        Si             4.00    28.08600     Si( 1.00)

     48 Sym. Ops., with inversion, found (24 have fractional translation)



   Cartesian axes

     site n.     atom                  positions (alat units)
         1           Si  tau(   1) = (   0.0000000   0.0000000   0.0000000  )
         2           Si  tau(   2) = (   0.2500000   0.2500000   0.2500000  )

     number of k points=  1661

     Number of k-points >= 100: set verbosity='high' to print them.

     Dense  grid:    20875 G-vectors     FFT dimensions: (  40,  40,  40)

     Estimated max dynamical RAM per process >      75.55 MB

     Estimated total dynamical RAM >     297.11 MB

     Initial potential from superposition of free atoms

     starting charge       7.9988, renormalised to       8.0000
     Starting wfcs are    8 randomized atomic wfcs

     total cpu time spent up to now is        5.1 secs

     Self-consistent Calculation

     iteration #  1     ecut=    70.00 Ry     beta= 0.70
     Davidson diagonalization with overlap
     ethr =  1.00E-02,  avg # of iterations =  2.0

     Threshold (ethr) on eigenvalues was too large:
     Diagonalizing with lowered threshold

     Davidson diagonalization with overlap
     ethr =  5.86E-04,  avg # of iterations =  2.0

     total cpu time spent up to now is       25.7 secs

     total energy              =     -16.92149580 Ry
     estimated scf accuracy    <       0.05530180 Ry

     iteration #  2     ecut=    70.00 Ry     beta= 0.70
     Davidson diagonalization with overlap
     ethr =  6.91E-04,  avg # of iterations =  1.0

     total cpu time spent up to now is       34.2 secs

     total energy              =     -16.92319959 Ry
     estimated scf accuracy    <       0.00291021 Ry

     iteration #  3     ecut=    70.00 Ry     beta= 0.70
     Davidson diagonalization with overlap
     ethr =  3.64E-05,  avg # of iterations =  2.3

     total cpu time spent up to now is       45.2 secs

     total energy              =     -16.92386855 Ry
     estimated scf accuracy    <       0.00006645 Ry

     iteration #  4     ecut=    70.00 Ry     beta= 0.70
     Davidson diagonalization with overlap
     ethr =  8.31E-07,  avg # of iterations =  5.1

     total cpu time spent up to now is       60.4 secs

     total energy              =     -16.92395270 Ry
     estimated scf accuracy    <       0.00000028 Ry

     iteration #  5     ecut=    70.00 Ry     beta= 0.70
     Davidson diagonalization with overlap
     ethr =  3.45E-09,  avg # of iterations =  6.5

     total cpu time spent up to now is       78.7 secs

     total energy              =     -16.92395445 Ry
     estimated scf accuracy    <          8.8E-09 Ry

     iteration #  6     ecut=    70.00 Ry     beta= 0.70
     Davidson diagonalization with overlap
     ethr =  1.11E-10,  avg # of iterations =  3.6

     total cpu time spent up to now is       91.6 secs

     total energy              =     -16.92395445 Ry
     estimated scf accuracy    <          6.3E-10 Ry

     iteration #  7     ecut=    70.00 Ry     beta= 0.70
     Davidson diagonalization with overlap
     ethr =  7.89E-12,  avg # of iterations =  3.6

     total cpu time spent up to now is      104.4 secs

     total energy              =     -16.92395445 Ry
     estimated scf accuracy    <          1.1E-10 Ry

     iteration #  8     ecut=    70.00 Ry     beta= 0.70
     Davidson diagonalization with overlap
     ethr =  1.34E-12,  avg # of iterations =  2.4

     total cpu time spent up to now is      115.0 secs

     End of self-consistent calculation

     Number of k-points >= 100: set verbosity='high' to print the bands.

     highest occupied level (ev):     6.4228

!    total energy              =     -16.92395445 Ry
     estimated scf accuracy    <          2.7E-13 Ry

     The total energy is the sum of the following terms:
     one-electron contribution =       5.10086342 Ry
     hartree contribution      =       1.07923939 Ry
     xc contribution           =      -6.20429869 Ry
     ewald contribution        =     -16.89975857 Ry

     convergence has been achieved in   8 iterations

     Writing all to output data dir /fastscratch/tsievers/QE_TMP_DIR/silicon_bench_intel_poolsize_2_n_procs_4_18.save/
 
     init_run     :      4.87s CPU      5.00s WALL (       1 calls)
     electrons    :    108.51s CPU    109.96s WALL (       1 calls)

     Called by init_run:
     wfcinit      :      4.69s CPU      4.81s WALL (       1 calls)
     potinit      :      0.01s CPU      0.02s WALL (       1 calls)
     hinit0       :      0.02s CPU      0.04s WALL (       1 calls)

     Called by electrons:
     c_bands      :     97.06s CPU     98.31s WALL (       9 calls)
     sum_band     :     11.33s CPU     11.50s WALL (       9 calls)
     v_of_rho     :      0.10s CPU      0.11s WALL (       9 calls)
     mix_rho      :      0.01s CPU      0.01s WALL (       9 calls)

     Called by c_bands:
     init_us_2    :      5.84s CPU      5.94s WALL (   15789 calls)
     init_us_2:cp :      5.80s CPU      5.91s WALL (   15789 calls)
     cegterg      :     69.44s CPU     70.27s WALL (    7479 calls)

     Called by *egterg:
     cdiaghg      :      1.14s CPU      1.17s WALL (   31304 calls)
     h_psi        :     66.26s CPU     67.09s WALL (   32966 calls)
     g_psi        :      0.61s CPU      0.62s WALL (   24656 calls)

     Called by h_psi:
     h_psi:calbec :      4.09s CPU      4.15s WALL (   32966 calls)
     vloc_psi     :     58.15s CPU     58.88s WALL (   32966 calls)
     add_vuspsi   :      3.62s CPU      3.69s WALL (   32966 calls)

     General routines
     calbec       :      4.01s CPU      4.08s WALL (   32966 calls)
     fft          :      0.03s CPU      0.05s WALL (      91 calls)
     ffts         :      0.00s CPU      0.00s WALL (       9 calls)
     fftw         :     58.14s CPU     58.88s WALL (  250120 calls)
 
     Parallel routines
 
     PWSCF        :   1m53.67s CPU   2m 7.48s WALL

 
   This run was terminated on:  20:31:17   4Jun2022            

=------------------------------------------------------------------------------=
   JOB DONE.
=------------------------------------------------------------------------------=
real 128.76
user 480.54
sys 7.14
