
     Program PHONON v.7.0 starts on 27Jun2022 at  6:59:34 

     This program is part of the open-source Quantum ESPRESSO suite
     for quantum simulation of materials; please cite
         "P. Giannozzi et al., J. Phys.:Condens. Matter 21 395502 (2009);
         "P. Giannozzi et al., J. Phys.:Condens. Matter 29 465901 (2017);
         "P. Giannozzi et al., J. Chem. Phys. 152 154105 (2020);
          URL http://www.quantum-espresso.org", 
     in publications or presentations arising from this work. More details at
     http://www.quantum-espresso.org/quote

     Parallel version (MPI), running on    96 processors

     MPI processes distributed on     5 nodes
     path-images division:  nimage    =       2
     K-points division:     npool     =       6
     R & G space division:  proc/nbgrp/npool/nimage =       8
     873 MiB available memory on the printing compute node when the environment starts
 
      Title line not specified: using 'default'.

     Reading xml data from directory:

     /fastscratch/tsievers/QE_TMP_DIR/si_ph_bench_nimages_2_n_procs_96_4.save/

     IMPORTANT: XC functional enforced from input :
     Exchange-correlation= PW
                           (   1   4   0   0   0   0   0)
     Any further DFT definition will be discarded
     Please, verify this is what you really want

 
     Parallelization info
     --------------------
     sticks:   dense  smooth     PW     G-vecs:    dense   smooth      PW
     Min         125     125     37                 2608     2608     433
     Max         126     126     38                 2611     2611     436
     Sum        1003    1003    301                20875    20875    3479
 
     Using Slab Decomposition
 
     Reading collected, re-writing distributed wavefunctions


     Dynamical matrices for ( 6, 6, 6)  uniform grid of q-points
     (  16 q-points):
       N         xq(1)         xq(2)         xq(3) 
       1   0.000000000   0.000000000   0.000000000
       2  -0.166666667   0.166666667  -0.166666667
       3  -0.333333333   0.333333333  -0.333333333
       4   0.500000000  -0.500000000   0.500000000
       5   0.000000000   0.333333333   0.000000000
       6  -0.166666667   0.500000000  -0.166666667
       7   0.666666667  -0.333333333   0.666666667
       8   0.500000000  -0.166666667   0.500000000
       9   0.333333333   0.000000000   0.333333333
      10   0.000000000   0.666666667   0.000000000
      11   0.833333333  -0.166666667   0.833333333
      12   0.666666667  -0.000000000   0.666666667
      13   0.000000000  -1.000000000   0.000000000
      14   0.666666667  -0.333333333   1.000000000
      15   0.500000000  -0.166666667   0.833333333
      16  -0.333333333  -1.000000000   0.000000000

      Image parallelization. There are  2 images and    76 representations
      The estimated total work is  1512 self-consistent (scf) runs
      I am image number     1 and my work is about  759 scf runs. I calculate: 
      q point number     9, representations:
       5 6
      q point number    10, representations:
       0 1 2 3 4
      q point number    11, representations:
       0 1 2 3 4 5 6
      q point number    12, representations:
       0 1 2 3 4 5 6
      q point number    13, representations:
       0 1 2 3
      q point number    14, representations:
       0 1 2 3 4 5 6
      q point number    15, representations:
       0 1 2 3 4 5 6
      q point number    16, representations:
       0 1 2 3

     Calculation of q =    0.3333333   0.0000000   0.3333333

     Subspace diagonalization in iterative solution of the eigenvalue problem:
     a serial algorithm will be used

 
     Parallelization info
     --------------------
     sticks:   dense  smooth     PW     G-vecs:    dense   smooth      PW
     Min         125     125     39                 2608     2608     479
     Max         126     126     40                 2611     2611     484
     Sum        1003    1003    313                20875    20875    3839
 
     Using Slab Decomposition
 

     Title: 
     default                                                                    


     bravais-lattice index     =            2
     lattice parameter (alat)  =      10.1899  a.u.
     unit-cell volume          =     264.5151 (a.u.)^3
     number of atoms/cell      =            2
     number of atomic types    =            1
     number of electrons       =         8.00
     number of Kohn-Sham states=            4
     kinetic-energy cutoff     =      70.0000  Ry
     charge density cutoff     =     280.0000  Ry
     Exchange-correlation= PW
                           (   1   4   0   0   0   0   0)

     celldm(1)=  10.189905  celldm(2)=   0.000000  celldm(3)=   0.000000
     celldm(4)=   0.000000  celldm(5)=   0.000000  celldm(6)=   0.000000

     crystal axes: (cart. coord. in units of alat)
               a(1) = (  -0.500000   0.000000   0.500000 )  
               a(2) = (   0.000000   0.500000   0.500000 )  
               a(3) = (  -0.500000   0.500000   0.000000 )  

     reciprocal axes: (cart. coord. in units 2 pi/alat)
               b(1) = ( -1.000000 -1.000000  1.000000 )  
               b(2) = (  1.000000  1.000000  1.000000 )  
               b(3) = ( -1.000000  1.000000 -1.000000 )  


     PseudoPot. # 1 for Si read from file:
     /fastscratch/tsievers/si_ph_benchmark_images//pseudos/Si.nc.UPF
     MD5 check sum: 9e2d726316af3d4752eea8ab0afbb951
     Pseudo is Norm-conserving + core correction, Zval =  4.0
     Generated using ONCVPSP code by D. R. Hamann
     Using radial grid of 1510 points,  6 beta functions with: 
                l(1) =   0
                l(2) =   0
                l(3) =   1
                l(4) =   1
                l(5) =   2
                l(6) =   2

     atomic species   valence    mass     pseudopotential
        Si             4.00    28.08550     Si( 1.00)

     48 Sym. Ops., with inversion, found



   Cartesian axes

     site n.     atom                  positions (alat units)
         1           Si  tau(   1) = (   0.0000000   0.0000000   0.0000000  )
         2           Si  tau(   2) = (  -0.2500000   0.2500000   0.2500000  )

     number of k points=   468

     Number of k-points >= 100: set verbosity='high' to print them.

     Dense  grid:    20875 G-vectors     FFT dimensions: (  40,  40,  40)

     Estimated max dynamical RAM per process >       2.64 MB

     Estimated total dynamical RAM >     126.64 MB

     The potential is recalculated from file :
     /fastscratch/tsievers/QE_TMP_DIR/_ph1/si_ph_bench_nimages_2_n_procs_96_4.save/charge-density

     Starting wfcs are    8 atomic wfcs

     Band Structure Calculation
     Davidson diagonalization with overlap

     ethr =  1.25E-10,  avg # of iterations = 12.8

     total cpu time spent up to now is        1.5 secs

     End of band structure calculation

     Number of k-points >= 100: set verbosity='high' to print the bands.

     highest occupied level (ev):     6.1106

     Writing config to output data dir /fastscratch/tsievers/QE_TMP_DIR/_ph1/si_ph_bench_nimages_2_n_procs_96_4.save/

     default                                                                    

     bravais-lattice index     =            2
     lattice parameter (alat)  =      10.1899  a.u.
     unit-cell volume          =     264.5151 (a.u.)^3
     number of atoms/cell      =            2
     number of atomic types    =            1
     kinetic-energy cut-off    =      70.0000  Ry
     charge density cut-off    =     280.0000  Ry
     convergence threshold     =      1.0E-15
     beta                      =       0.7000
     number of iterations used =            4
     Exchange-correlation= PW
                           (   1   4   0   0   0   0   0)


     celldm(1)=   10.18990  celldm(2)=    0.00000  celldm(3)=    0.00000
     celldm(4)=    0.00000  celldm(5)=    0.00000  celldm(6)=    0.00000

     crystal axes: (cart. coord. in units of alat)
               a(1) = ( -0.5000  0.0000  0.5000 )  
               a(2) = (  0.0000  0.5000  0.5000 )  
               a(3) = ( -0.5000  0.5000  0.0000 )  

     reciprocal axes: (cart. coord. in units 2 pi/alat)
               b(1) = ( -1.0000 -1.0000  1.0000 )  
               b(2) = (  1.0000  1.0000  1.0000 )  
               b(3) = ( -1.0000  1.0000 -1.0000 )  


     Atoms inside the unit cell: 

     Cartesian axes

     site n.  atom      mass           positions (alat units)
        1     Si  28.0855   tau(    1) = (    0.00000    0.00000    0.00000  )
        2     Si  28.0855   tau(    2) = (   -0.25000    0.25000    0.25000  )

     Computing dynamical matrix for 
                    q = (   0.3333333   0.0000000   0.3333333 )
 
      4 Sym.Ops. (no q -> -q+G )


     G cutoff =  736.4420  (   2611 G-vectors)     FFT grid: ( 40, 40, 40)
     number of k points=   468

     PseudoPot. # 1 for Si read from file:
     /fastscratch/tsievers/si_ph_benchmark_images//pseudos/Si.nc.UPF
     MD5 check sum: 9e2d726316af3d4752eea8ab0afbb951
     Pseudo is Norm-conserving + core correction, Zval =  4.0
     Generated using ONCVPSP code by D. R. Hamann
     Using radial grid of 1510 points,  6 beta functions with: 
                l(1) =   0
                l(2) =   0
                l(3) =   1
                l(4) =   1
                l(5) =   2
                l(6) =   2

     Mode symmetry, C_2v (mm2)  point group:


     Atomic displacements:
     There are    6 irreducible representations

     Representation     1      1 modes -  Not done in this run

     Representation     2      1 modes -  Not done in this run

     Representation     3      1 modes -  Not done in this run

     Representation     4      1 modes -  Not done in this run

     Representation     5      1 modes -  To be done

     Representation     6      1 modes -  To be done

     Compute atoms:     1,    2,


     PHONON       :      2.75s CPU      4.94s WALL



     Representation #   5 mode #   5

     Self-consistent Calculation

      iter #   1 total cpu time :     5.4 secs   av.it.:   5.4
      thresh= 1.000E-02 alpha_mix =  0.700 |ddv_scf|^2 =  1.065E-07

      iter #   2 total cpu time :     6.2 secs   av.it.:  10.7
      thresh= 3.264E-05 alpha_mix =  0.700 |ddv_scf|^2 =  3.512E-08

      iter #   3 total cpu time :     6.9 secs   av.it.:  10.2
      thresh= 1.874E-05 alpha_mix =  0.700 |ddv_scf|^2 =  4.470E-10

      iter #   4 total cpu time :     7.8 secs   av.it.:  10.3
      thresh= 2.114E-06 alpha_mix =  0.700 |ddv_scf|^2 =  7.381E-12

      iter #   5 total cpu time :     9.4 secs   av.it.:  10.5
      thresh= 2.717E-07 alpha_mix =  0.700 |ddv_scf|^2 =  2.490E-13

      iter #   6 total cpu time :    10.4 secs   av.it.:  10.6
      thresh= 4.990E-08 alpha_mix =  0.700 |ddv_scf|^2 =  5.579E-15

      iter #   7 total cpu time :    11.2 secs   av.it.:  10.7
      thresh= 7.469E-09 alpha_mix =  0.700 |ddv_scf|^2 =  3.882E-17

     End of self-consistent calculation

     Convergence has been achieved 


     Representation #   6 mode #   6

     Self-consistent Calculation

      iter #   1 total cpu time :    12.6 secs   av.it.:   6.1
      thresh= 1.000E-02 alpha_mix =  0.700 |ddv_scf|^2 =  1.175E-06

      iter #   2 total cpu time :    13.3 secs   av.it.:  10.6
      thresh= 1.084E-04 alpha_mix =  0.700 |ddv_scf|^2 =  4.121E-07

      iter #   3 total cpu time :    14.8 secs   av.it.:  10.1
      thresh= 6.420E-05 alpha_mix =  0.700 |ddv_scf|^2 =  1.147E-09

      iter #   4 total cpu time :    15.5 secs   av.it.:  10.4
      thresh= 3.386E-06 alpha_mix =  0.700 |ddv_scf|^2 =  5.982E-11

      iter #   5 total cpu time :    16.2 secs   av.it.:  10.4
      thresh= 7.734E-07 alpha_mix =  0.700 |ddv_scf|^2 =  1.896E-13

      iter #   6 total cpu time :    17.1 secs   av.it.:  10.4
      thresh= 4.354E-08 alpha_mix =  0.700 |ddv_scf|^2 =  2.325E-15

      iter #   7 total cpu time :    17.7 secs   av.it.:  10.6
      thresh= 4.821E-09 alpha_mix =  0.700 |ddv_scf|^2 =  7.187E-17

     End of self-consistent calculation

     Convergence has been achieved 

     Not diagonalizing because representation    0 is not done

     Calculation of q =    0.0000000   0.6666667   0.0000000
 
     Parallelization info
     --------------------
     sticks:   dense  smooth     PW     G-vecs:    dense   smooth      PW
     Min         125     125     39                 2608     2608     479
     Max         126     126     40                 2611     2611     484
     Sum        1003    1003    313                20875    20875    3839
 
     Using Slab Decomposition
 

     Title: 
     default                                                                    


     bravais-lattice index     =            2
     lattice parameter (alat)  =      10.1899  a.u.
     unit-cell volume          =     264.5151 (a.u.)^3
     number of atoms/cell      =            2
     number of atomic types    =            1
     number of electrons       =         8.00
     number of Kohn-Sham states=            4
     kinetic-energy cutoff     =      70.0000  Ry
     charge density cutoff     =     280.0000  Ry
     Exchange-correlation= PW
                           (   1   4   0   0   0   0   0)

     celldm(1)=  10.189905  celldm(2)=   0.000000  celldm(3)=   0.000000
     celldm(4)=   0.000000  celldm(5)=   0.000000  celldm(6)=   0.000000

     crystal axes: (cart. coord. in units of alat)
               a(1) = (  -0.500000   0.000000   0.500000 )  
               a(2) = (   0.000000   0.500000   0.500000 )  
               a(3) = (  -0.500000   0.500000   0.000000 )  

     reciprocal axes: (cart. coord. in units 2 pi/alat)
               b(1) = ( -1.000000 -1.000000  1.000000 )  
               b(2) = (  1.000000  1.000000  1.000000 )  
               b(3) = ( -1.000000  1.000000 -1.000000 )  


     PseudoPot. # 1 for Si read from file:
     /fastscratch/tsievers/si_ph_benchmark_images//pseudos/Si.nc.UPF
     MD5 check sum: 9e2d726316af3d4752eea8ab0afbb951
     Pseudo is Norm-conserving + core correction, Zval =  4.0
     Generated using ONCVPSP code by D. R. Hamann
     Using radial grid of 1510 points,  6 beta functions with: 
                l(1) =   0
                l(2) =   0
                l(3) =   1
                l(4) =   1
                l(5) =   2
                l(6) =   2

     atomic species   valence    mass     pseudopotential
        Si             4.00    28.08550     Si( 1.00)

     48 Sym. Ops., with inversion, found



   Cartesian axes

     site n.     atom                  positions (alat units)
         1           Si  tau(   1) = (   0.0000000   0.0000000   0.0000000  )
         2           Si  tau(   2) = (  -0.2500000   0.2500000   0.2500000  )

     number of k points=   252

     Number of k-points >= 100: set verbosity='high' to print them.

     Dense  grid:    20875 G-vectors     FFT dimensions: (  40,  40,  40)

     Estimated max dynamical RAM per process >       2.65 MB

     Estimated total dynamical RAM >     127.10 MB

     The potential is recalculated from file :
     /fastscratch/tsievers/QE_TMP_DIR/_ph1/si_ph_bench_nimages_2_n_procs_96_4.save/charge-density

     Starting wfcs are    8 atomic wfcs

     Band Structure Calculation
     Davidson diagonalization with overlap

     ethr =  1.25E-10,  avg # of iterations = 12.8

     total cpu time spent up to now is        4.3 secs

     End of band structure calculation

     Number of k-points >= 100: set verbosity='high' to print the bands.

     highest occupied level (ev):     6.1106

     Writing config to output data dir /fastscratch/tsievers/QE_TMP_DIR/_ph1/si_ph_bench_nimages_2_n_procs_96_4.save/

     default                                                                    

     bravais-lattice index     =            2
     lattice parameter (alat)  =      10.1899  a.u.
     unit-cell volume          =     264.5151 (a.u.)^3
     number of atoms/cell      =            2
     number of atomic types    =            1
     kinetic-energy cut-off    =      70.0000  Ry
     charge density cut-off    =     280.0000  Ry
     convergence threshold     =      1.0E-15
     beta                      =       0.7000
     number of iterations used =            4
     Exchange-correlation= PW
                           (   1   4   0   0   0   0   0)


     celldm(1)=   10.18990  celldm(2)=    0.00000  celldm(3)=    0.00000
     celldm(4)=    0.00000  celldm(5)=    0.00000  celldm(6)=    0.00000

     crystal axes: (cart. coord. in units of alat)
               a(1) = ( -0.5000  0.0000  0.5000 )  
               a(2) = (  0.0000  0.5000  0.5000 )  
               a(3) = ( -0.5000  0.5000  0.0000 )  

     reciprocal axes: (cart. coord. in units 2 pi/alat)
               b(1) = ( -1.0000 -1.0000  1.0000 )  
               b(2) = (  1.0000  1.0000  1.0000 )  
               b(3) = ( -1.0000  1.0000 -1.0000 )  


     Atoms inside the unit cell: 

     Cartesian axes

     site n.  atom      mass           positions (alat units)
        1     Si  28.0855   tau(    1) = (    0.00000    0.00000    0.00000  )
        2     Si  28.0855   tau(    2) = (   -0.25000    0.25000    0.25000  )

     Computing dynamical matrix for 
                    q = (   0.0000000   0.6666667   0.0000000 )
 
      8 Sym.Ops. (no q -> -q+G )


     G cutoff =  736.4420  (   2611 G-vectors)     FFT grid: ( 40, 40, 40)
     number of k points=   252

     PseudoPot. # 1 for Si read from file:
     /fastscratch/tsievers/si_ph_benchmark_images//pseudos/Si.nc.UPF
     MD5 check sum: 9e2d726316af3d4752eea8ab0afbb951
     Pseudo is Norm-conserving + core correction, Zval =  4.0
     Generated using ONCVPSP code by D. R. Hamann
     Using radial grid of 1510 points,  6 beta functions with: 
                l(1) =   0
                l(2) =   0
                l(3) =   1
                l(4) =   1
                l(5) =   2
                l(6) =   2

     Mode symmetry, C_4v (4mm)  point group:


     Atomic displacements:
     There are    4 irreducible representations

     Representation     1      1 modes -  To be done

     Representation     2      1 modes -  To be done

     Representation     3      2 modes -  To be done

     Representation     4      2 modes -  To be done



     Alpha used in Ewald sum =   2.8000
     PHONON       :     16.15s CPU     20.20s WALL



     Representation #   1 mode #   1

     Self-consistent Calculation

      iter #   1 total cpu time :    20.7 secs   av.it.:   6.6
      thresh= 1.000E-02 alpha_mix =  0.700 |ddv_scf|^2 =  9.954E-05

      iter #   2 total cpu time :    21.2 secs   av.it.:   9.8
      thresh= 9.977E-04 alpha_mix =  0.700 |ddv_scf|^2 =  6.208E-04

      iter #   3 total cpu time :    21.8 secs   av.it.:   8.6
      thresh= 2.492E-03 alpha_mix =  0.700 |ddv_scf|^2 =  4.234E-09

      iter #   4 total cpu time :    22.7 secs   av.it.:  10.1
      thresh= 6.507E-06 alpha_mix =  0.700 |ddv_scf|^2 =  2.490E-10

      iter #   5 total cpu time :    23.7 secs   av.it.:  10.1
      thresh= 1.578E-06 alpha_mix =  0.700 |ddv_scf|^2 =  7.843E-12

      iter #   6 total cpu time :    24.1 secs   av.it.:  10.2
      thresh= 2.801E-07 alpha_mix =  0.700 |ddv_scf|^2 =  1.539E-13

      iter #   7 total cpu time :    24.8 secs   av.it.:   9.4
      thresh= 3.923E-08 alpha_mix =  0.700 |ddv_scf|^2 =  2.984E-16

     End of self-consistent calculation

     Convergence has been achieved 


     Representation #   2 mode #   2

     Self-consistent Calculation

      iter #   1 total cpu time :    25.8 secs   av.it.:   6.0
      thresh= 1.000E-02 alpha_mix =  0.700 |ddv_scf|^2 =  1.332E-06

      iter #   2 total cpu time :    26.8 secs   av.it.:  10.3
      thresh= 1.154E-04 alpha_mix =  0.700 |ddv_scf|^2 =  5.611E-07

      iter #   3 total cpu time :    27.5 secs   av.it.:   9.9
      thresh= 7.491E-05 alpha_mix =  0.700 |ddv_scf|^2 =  8.302E-10

      iter #   4 total cpu time :    28.2 secs   av.it.:  10.2
      thresh= 2.881E-06 alpha_mix =  0.700 |ddv_scf|^2 =  4.886E-11

      iter #   5 total cpu time :    28.8 secs   av.it.:  10.3
      thresh= 6.990E-07 alpha_mix =  0.700 |ddv_scf|^2 =  8.718E-14

      iter #   6 total cpu time :    29.5 secs   av.it.:  10.3
      thresh= 2.953E-08 alpha_mix =  0.700 |ddv_scf|^2 =  1.770E-15

      iter #   7 total cpu time :    30.0 secs   av.it.:  10.3
      thresh= 4.207E-09 alpha_mix =  0.700 |ddv_scf|^2 =  2.822E-17

     End of self-consistent calculation

     Convergence has been achieved 


     Representation #   3 modes #   3   4

     Self-consistent Calculation

      iter #   1 total cpu time :    31.0 secs   av.it.:   6.1
      thresh= 1.000E-02 alpha_mix =  0.700 |ddv_scf|^2 =  1.211E-07

      iter #   2 total cpu time :    32.9 secs   av.it.:  11.3
      thresh= 3.481E-05 alpha_mix =  0.700 |ddv_scf|^2 =  2.568E-08

      iter #   3 total cpu time :    34.7 secs   av.it.:  10.9
      thresh= 1.602E-05 alpha_mix =  0.700 |ddv_scf|^2 =  7.905E-11

      iter #   4 total cpu time :    36.1 secs   av.it.:  11.3
      thresh= 8.891E-07 alpha_mix =  0.700 |ddv_scf|^2 =  2.393E-13

      iter #   5 total cpu time :    37.9 secs   av.it.:  11.3
      thresh= 4.892E-08 alpha_mix =  0.700 |ddv_scf|^2 =  2.730E-15

      iter #   6 total cpu time :    38.9 secs   av.it.:  11.3
      thresh= 5.225E-09 alpha_mix =  0.700 |ddv_scf|^2 =  4.493E-17

     End of self-consistent calculation

     Convergence has been achieved 


     Representation #   4 modes #   5   6

     Self-consistent Calculation

      iter #   1 total cpu time :    40.0 secs   av.it.:   6.2
      thresh= 1.000E-02 alpha_mix =  0.700 |ddv_scf|^2 =  1.906E-07

      iter #   2 total cpu time :    40.9 secs   av.it.:  11.3
      thresh= 4.365E-05 alpha_mix =  0.700 |ddv_scf|^2 =  4.099E-08

      iter #   3 total cpu time :    43.4 secs   av.it.:  11.0
      thresh= 2.025E-05 alpha_mix =  0.700 |ddv_scf|^2 =  8.739E-11

      iter #   4 total cpu time :    45.3 secs   av.it.:  11.3
      thresh= 9.348E-07 alpha_mix =  0.700 |ddv_scf|^2 =  2.190E-13

      iter #   5 total cpu time :    46.9 secs   av.it.:  11.3
      thresh= 4.680E-08 alpha_mix =  0.700 |ddv_scf|^2 =  3.656E-15

      iter #   6 total cpu time :    48.4 secs   av.it.:  11.4
      thresh= 6.046E-09 alpha_mix =  0.700 |ddv_scf|^2 =  4.311E-17

     End of self-consistent calculation

     Convergence has been achieved 
 
     Number of q in the star =    6
     List of q in the star:
          1   0.000000000   0.666666667   0.000000000
          2   0.000000000  -0.666666667   0.000000000
          3   0.666666667   0.000000000   0.000000000
          4  -0.666666667   0.000000000   0.000000000
          5   0.000000000   0.000000000   0.666666667
          6   0.000000000   0.000000000  -0.666666667

     Diagonalizing the dynamical matrix

     q = (    0.000000000   0.666666667   0.000000000 ) 

 **************************************************************************
     freq (    1) =       4.039112 [THz] =     134.730259 [cm-1]
     freq (    2) =       4.039112 [THz] =     134.730259 [cm-1]
     freq (    3) =       9.188760 [THz] =     306.504053 [cm-1]
     freq (    4) =      13.988705 [THz] =     466.612961 [cm-1]
     freq (    5) =      13.988705 [THz] =     466.612961 [cm-1]
     freq (    6) =      14.186775 [THz] =     473.219864 [cm-1]
 **************************************************************************

     Mode symmetry, C_4v (4mm)  point group:

     freq (   1-   2) =        134.7  [cm-1]   --> E    G_5 D_5       
     freq (   3-   3) =        306.5  [cm-1]   --> A_1  G_1 D_1       
     freq (   4-   5) =        466.6  [cm-1]   --> E    G_5 D_5       
     freq (   6-   6) =        473.2  [cm-1]   --> B_2  G_4 D_2'      

     Calculation of q =    0.8333333  -0.1666667   0.8333333
 
     Parallelization info
     --------------------
     sticks:   dense  smooth     PW     G-vecs:    dense   smooth      PW
     Min         125     125     43                 2608     2608     534
     Max         126     126     44                 2611     2611     537
     Sum        1003    1003    349                20875    20875    4285
 
     Using Slab Decomposition
 

     Title: 
     default                                                                    


     bravais-lattice index     =            2
     lattice parameter (alat)  =      10.1899  a.u.
     unit-cell volume          =     264.5151 (a.u.)^3
     number of atoms/cell      =            2
     number of atomic types    =            1
     number of electrons       =         8.00
     number of Kohn-Sham states=            4
     kinetic-energy cutoff     =      70.0000  Ry
     charge density cutoff     =     280.0000  Ry
     Exchange-correlation= PW
                           (   1   4   0   0   0   0   0)

     celldm(1)=  10.189905  celldm(2)=   0.000000  celldm(3)=   0.000000
     celldm(4)=   0.000000  celldm(5)=   0.000000  celldm(6)=   0.000000

     crystal axes: (cart. coord. in units of alat)
               a(1) = (  -0.500000   0.000000   0.500000 )  
               a(2) = (   0.000000   0.500000   0.500000 )  
               a(3) = (  -0.500000   0.500000   0.000000 )  

     reciprocal axes: (cart. coord. in units 2 pi/alat)
               b(1) = ( -1.000000 -1.000000  1.000000 )  
               b(2) = (  1.000000  1.000000  1.000000 )  
               b(3) = ( -1.000000  1.000000 -1.000000 )  


     PseudoPot. # 1 for Si read from file:
     /fastscratch/tsievers/si_ph_benchmark_images//pseudos/Si.nc.UPF
     MD5 check sum: 9e2d726316af3d4752eea8ab0afbb951
     Pseudo is Norm-conserving + core correction, Zval =  4.0
     Generated using ONCVPSP code by D. R. Hamann
     Using radial grid of 1510 points,  6 beta functions with: 
                l(1) =   0
                l(2) =   0
                l(3) =   1
                l(4) =   1
                l(5) =   2
                l(6) =   2

     atomic species   valence    mass     pseudopotential
        Si             4.00    28.08550     Si( 1.00)

     48 Sym. Ops., with inversion, found



   Cartesian axes

     site n.     atom                  positions (alat units)
         1           Si  tau(   1) = (   0.0000000   0.0000000   0.0000000  )
         2           Si  tau(   2) = (  -0.2500000   0.2500000   0.2500000  )

     number of k points=   936

     Number of k-points >= 100: set verbosity='high' to print them.

     Dense  grid:    20875 G-vectors     FFT dimensions: (  40,  40,  40)

     Estimated max dynamical RAM per process >       2.67 MB

     Estimated total dynamical RAM >     128.33 MB

     The potential is recalculated from file :
     /fastscratch/tsievers/QE_TMP_DIR/_ph1/si_ph_bench_nimages_2_n_procs_96_4.save/charge-density

     Starting wfcs are    8 atomic wfcs

     Band Structure Calculation
     Davidson diagonalization with overlap

     ethr =  1.25E-10,  avg # of iterations = 12.8

     total cpu time spent up to now is        7.5 secs

     End of band structure calculation

     Number of k-points >= 100: set verbosity='high' to print the bands.

     highest occupied level (ev):     6.1106

     Writing config to output data dir /fastscratch/tsievers/QE_TMP_DIR/_ph1/si_ph_bench_nimages_2_n_procs_96_4.save/

     default                                                                    

     bravais-lattice index     =            2
     lattice parameter (alat)  =      10.1899  a.u.
     unit-cell volume          =     264.5151 (a.u.)^3
     number of atoms/cell      =            2
     number of atomic types    =            1
     kinetic-energy cut-off    =      70.0000  Ry
     charge density cut-off    =     280.0000  Ry
     convergence threshold     =      1.0E-15
     beta                      =       0.7000
     number of iterations used =            4
     Exchange-correlation= PW
                           (   1   4   0   0   0   0   0)


     celldm(1)=   10.18990  celldm(2)=    0.00000  celldm(3)=    0.00000
     celldm(4)=    0.00000  celldm(5)=    0.00000  celldm(6)=    0.00000

     crystal axes: (cart. coord. in units of alat)
               a(1) = ( -0.5000  0.0000  0.5000 )  
               a(2) = (  0.0000  0.5000  0.5000 )  
               a(3) = ( -0.5000  0.5000  0.0000 )  

     reciprocal axes: (cart. coord. in units 2 pi/alat)
               b(1) = ( -1.0000 -1.0000  1.0000 )  
               b(2) = (  1.0000  1.0000  1.0000 )  
               b(3) = ( -1.0000  1.0000 -1.0000 )  


     Atoms inside the unit cell: 

     Cartesian axes

     site n.  atom      mass           positions (alat units)
        1     Si  28.0855   tau(    1) = (    0.00000    0.00000    0.00000  )
        2     Si  28.0855   tau(    2) = (   -0.25000    0.25000    0.25000  )

     Computing dynamical matrix for 
                    q = (   0.8333333  -0.1666667   0.8333333 )
 
      2 Sym.Ops. (no q -> -q+G )


     G cutoff =  736.4420  (   2611 G-vectors)     FFT grid: ( 40, 40, 40)
     number of k points=   936

     PseudoPot. # 1 for Si read from file:
     /fastscratch/tsievers/si_ph_benchmark_images//pseudos/Si.nc.UPF
     MD5 check sum: 9e2d726316af3d4752eea8ab0afbb951
     Pseudo is Norm-conserving + core correction, Zval =  4.0
     Generated using ONCVPSP code by D. R. Hamann
     Using radial grid of 1510 points,  6 beta functions with: 
                l(1) =   0
                l(2) =   0
                l(3) =   1
                l(4) =   1
                l(5) =   2
                l(6) =   2

     Mode symmetry, C_s (m)     point group:


     Atomic displacements:
     There are    6 irreducible representations

     Representation     1      1 modes -  To be done

     Representation     2      1 modes -  To be done

     Representation     3      1 modes -  To be done

     Representation     4      1 modes -  To be done

     Representation     5      1 modes -  To be done

     Representation     6      1 modes -  To be done



     Alpha used in Ewald sum =   2.8000
     PHONON       :     44.12s CPU     55.17s WALL



     Representation #   1 mode #   1

     Self-consistent Calculation

      iter #   1 total cpu time :    56.4 secs   av.it.:   6.5
      thresh= 1.000E-02 alpha_mix =  0.700 |ddv_scf|^2 =  1.083E-05

      iter #   2 total cpu time :    58.2 secs   av.it.:  10.4
      thresh= 3.292E-04 alpha_mix =  0.700 |ddv_scf|^2 =  2.655E-05

      iter #   3 total cpu time :    59.3 secs   av.it.:   9.4
      thresh= 5.153E-04 alpha_mix =  0.700 |ddv_scf|^2 =  1.234E-07

      iter #   4 total cpu time :    61.4 secs   av.it.:   9.9
      thresh= 3.512E-05 alpha_mix =  0.700 |ddv_scf|^2 =  9.140E-10

      iter #   5 total cpu time :    63.4 secs   av.it.:  10.4
      thresh= 3.023E-06 alpha_mix =  0.700 |ddv_scf|^2 =  1.579E-10

      iter #   6 total cpu time :    65.0 secs   av.it.:  10.3
      thresh= 1.257E-06 alpha_mix =  0.700 |ddv_scf|^2 =  3.225E-12

      iter #   7 total cpu time :    66.4 secs   av.it.:  10.5
      thresh= 1.796E-07 alpha_mix =  0.700 |ddv_scf|^2 =  1.088E-13

      iter #   8 total cpu time :    68.3 secs   av.it.:  10.6
      thresh= 3.299E-08 alpha_mix =  0.700 |ddv_scf|^2 =  2.949E-14

      iter #   9 total cpu time :    69.8 secs   av.it.:  10.2
      thresh= 1.717E-08 alpha_mix =  0.700 |ddv_scf|^2 =  2.230E-14

      iter #  10 total cpu time :    71.0 secs   av.it.:   9.6
      thresh= 1.493E-08 alpha_mix =  0.700 |ddv_scf|^2 =  7.649E-16

     End of self-consistent calculation

     Convergence has been achieved 


     Representation #   2 mode #   2

     Self-consistent Calculation

      iter #   1 total cpu time :    72.2 secs   av.it.:   6.5
      thresh= 1.000E-02 alpha_mix =  0.700 |ddv_scf|^2 =  1.040E-05

      iter #   2 total cpu time :    73.5 secs   av.it.:  10.5
      thresh= 3.225E-04 alpha_mix =  0.700 |ddv_scf|^2 =  2.545E-05

      iter #   3 total cpu time :    74.8 secs   av.it.:   9.5
      thresh= 5.045E-04 alpha_mix =  0.700 |ddv_scf|^2 =  1.219E-07

      iter #   4 total cpu time :    76.9 secs   av.it.:  10.0
      thresh= 3.492E-05 alpha_mix =  0.700 |ddv_scf|^2 =  8.402E-10

      iter #   5 total cpu time :    78.2 secs   av.it.:  10.4
      thresh= 2.899E-06 alpha_mix =  0.700 |ddv_scf|^2 =  9.368E-11

      iter #   6 total cpu time :    79.6 secs   av.it.:  10.4
      thresh= 9.679E-07 alpha_mix =  0.700 |ddv_scf|^2 =  5.834E-12

      iter #   7 total cpu time :    80.8 secs   av.it.:  10.5
      thresh= 2.415E-07 alpha_mix =  0.700 |ddv_scf|^2 =  2.965E-13

      iter #   8 total cpu time :    82.4 secs   av.it.:  10.5
      thresh= 5.445E-08 alpha_mix =  0.700 |ddv_scf|^2 =  2.453E-14

      iter #   9 total cpu time :    84.0 secs   av.it.:  10.2
      thresh= 1.566E-08 alpha_mix =  0.700 |ddv_scf|^2 =  1.969E-14

      iter #  10 total cpu time :    85.9 secs   av.it.:   9.8
      thresh= 1.403E-08 alpha_mix =  0.700 |ddv_scf|^2 =  1.478E-15

      iter #  11 total cpu time :    89.4 secs   av.it.:  10.1
      thresh= 3.844E-09 alpha_mix =  0.700 |ddv_scf|^2 =  5.963E-17

     End of self-consistent calculation

     Convergence has been achieved 


     Representation #   3 mode #   3

     Self-consistent Calculation

      iter #   1 total cpu time :    90.7 secs   av.it.:   6.3
      thresh= 1.000E-02 alpha_mix =  0.700 |ddv_scf|^2 =  4.968E-06

      iter #   2 total cpu time :    93.6 secs   av.it.:  10.4
      thresh= 2.229E-04 alpha_mix =  0.700 |ddv_scf|^2 =  9.934E-06

      iter #   3 total cpu time :    94.8 secs   av.it.:   9.4
      thresh= 3.152E-04 alpha_mix =  0.700 |ddv_scf|^2 =  1.553E-07

      iter #   4 total cpu time :    96.0 secs   av.it.:   9.8
      thresh= 3.941E-05 alpha_mix =  0.700 |ddv_scf|^2 =  5.816E-10

      iter #   5 total cpu time :    98.9 secs   av.it.:  10.5
      thresh= 2.412E-06 alpha_mix =  0.700 |ddv_scf|^2 =  1.651E-10

      iter #   6 total cpu time :   100.2 secs   av.it.:  10.2
      thresh= 1.285E-06 alpha_mix =  0.700 |ddv_scf|^2 =  3.634E-12

      iter #   7 total cpu time :   101.4 secs   av.it.:  10.5
      thresh= 1.906E-07 alpha_mix =  0.700 |ddv_scf|^2 =  1.259E-13

      iter #   8 total cpu time :   103.4 secs   av.it.:  10.6
      thresh= 3.548E-08 alpha_mix =  0.700 |ddv_scf|^2 =  1.595E-14

      iter #   9 total cpu time :   104.9 secs   av.it.:  10.3
      thresh= 1.263E-08 alpha_mix =  0.700 |ddv_scf|^2 =  1.035E-14

      iter #  10 total cpu time :   106.1 secs   av.it.:   9.5
      thresh= 1.017E-08 alpha_mix =  0.700 |ddv_scf|^2 =  2.424E-16

     End of self-consistent calculation

     Convergence has been achieved 


     Representation #   4 mode #   4

     Self-consistent Calculation

      iter #   1 total cpu time :   107.3 secs   av.it.:   6.3
      thresh= 1.000E-02 alpha_mix =  0.700 |ddv_scf|^2 =  4.531E-06

      iter #   2 total cpu time :   108.6 secs   av.it.:  10.6
      thresh= 2.129E-04 alpha_mix =  0.700 |ddv_scf|^2 =  8.807E-06

      iter #   3 total cpu time :   110.0 secs   av.it.:   9.6
      thresh= 2.968E-04 alpha_mix =  0.700 |ddv_scf|^2 =  1.545E-07

      iter #   4 total cpu time :   111.3 secs   av.it.:   9.9
      thresh= 3.930E-05 alpha_mix =  0.700 |ddv_scf|^2 =  7.812E-10

      iter #   5 total cpu time :   112.5 secs   av.it.:  10.4
      thresh= 2.795E-06 alpha_mix =  0.700 |ddv_scf|^2 =  1.933E-10

      iter #   6 total cpu time :   114.4 secs   av.it.:  10.2
      thresh= 1.390E-06 alpha_mix =  0.700 |ddv_scf|^2 =  5.371E-12

      iter #   7 total cpu time :   116.0 secs   av.it.:  10.6
      thresh= 2.318E-07 alpha_mix =  0.700 |ddv_scf|^2 =  2.502E-13

      iter #   8 total cpu time :   117.5 secs   av.it.:  10.5
      thresh= 5.002E-08 alpha_mix =  0.700 |ddv_scf|^2 =  1.732E-14

      iter #   9 total cpu time :   120.2 secs   av.it.:  10.3
      thresh= 1.316E-08 alpha_mix =  0.700 |ddv_scf|^2 =  9.781E-15

      iter #  10 total cpu time :   121.4 secs   av.it.:   9.8
      thresh= 9.890E-09 alpha_mix =  0.700 |ddv_scf|^2 =  6.127E-16

     End of self-consistent calculation

     Convergence has been achieved 


     Representation #   5 mode #   5

     Self-consistent Calculation

      iter #   1 total cpu time :   122.4 secs   av.it.:   6.0
      thresh= 1.000E-02 alpha_mix =  0.700 |ddv_scf|^2 =  6.809E-07

      iter #   2 total cpu time :   123.7 secs   av.it.:  10.3
      thresh= 8.251E-05 alpha_mix =  0.700 |ddv_scf|^2 =  1.580E-07

      iter #   3 total cpu time :   125.2 secs   av.it.:  10.0
      thresh= 3.975E-05 alpha_mix =  0.700 |ddv_scf|^2 =  3.437E-10

      iter #   4 total cpu time :   127.0 secs   av.it.:  10.3
      thresh= 1.854E-06 alpha_mix =  0.700 |ddv_scf|^2 =  7.467E-13

      iter #   5 total cpu time :   128.5 secs   av.it.:  10.4
      thresh= 8.641E-08 alpha_mix =  0.700 |ddv_scf|^2 =  1.217E-14

      iter #   6 total cpu time :   129.7 secs   av.it.:  10.4
      thresh= 1.103E-08 alpha_mix =  0.700 |ddv_scf|^2 =  1.915E-16

     End of self-consistent calculation

     Convergence has been achieved 


     Representation #   6 mode #   6

     Self-consistent Calculation

      iter #   1 total cpu time :   131.2 secs   av.it.:   6.0
      thresh= 1.000E-02 alpha_mix =  0.700 |ddv_scf|^2 =  6.809E-07

      iter #   2 total cpu time :   132.7 secs   av.it.:  10.3
      thresh= 8.251E-05 alpha_mix =  0.700 |ddv_scf|^2 =  1.580E-07

      iter #   3 total cpu time :   134.2 secs   av.it.:  10.0
      thresh= 3.975E-05 alpha_mix =  0.700 |ddv_scf|^2 =  3.437E-10

      iter #   4 total cpu time :   136.7 secs   av.it.:  10.3
      thresh= 1.854E-06 alpha_mix =  0.700 |ddv_scf|^2 =  7.466E-13

      iter #   5 total cpu time :   138.0 secs   av.it.:  10.4
      thresh= 8.641E-08 alpha_mix =  0.700 |ddv_scf|^2 =  1.217E-14

      iter #   6 total cpu time :   139.3 secs   av.it.:  10.4
      thresh= 1.103E-08 alpha_mix =  0.700 |ddv_scf|^2 =  1.911E-16

     End of self-consistent calculation

     Convergence has been achieved 
 
     Number of q in the star =   24
     List of q in the star:
          1   0.833333333  -0.166666667   0.833333333
          2   0.833333333  -0.166666667  -0.833333333
          3  -0.833333333  -0.166666667   0.833333333
          4  -0.833333333  -0.166666667  -0.833333333
          5  -0.833333333   0.166666667  -0.833333333
          6  -0.833333333   0.166666667   0.833333333
          7   0.833333333   0.166666667   0.833333333
          8   0.833333333   0.166666667  -0.833333333
          9  -0.166666667   0.833333333   0.833333333
         10   0.166666667   0.833333333  -0.833333333
         11  -0.166666667  -0.833333333  -0.833333333
         12  -0.166666667   0.833333333  -0.833333333
         13   0.833333333   0.833333333  -0.166666667
         14   0.833333333  -0.833333333   0.166666667
         15  -0.833333333  -0.833333333  -0.166666667
         16  -0.833333333   0.833333333   0.166666667
         17   0.166666667  -0.833333333   0.833333333
         18  -0.833333333   0.833333333  -0.166666667
         19   0.166666667   0.833333333   0.833333333
         20  -0.166666667  -0.833333333   0.833333333
         21  -0.833333333  -0.833333333   0.166666667
         22   0.833333333   0.833333333   0.166666667
         23   0.166666667  -0.833333333  -0.833333333
         24   0.833333333  -0.833333333  -0.166666667

     Diagonalizing the dynamical matrix

     q = (    0.833333333  -0.166666667   0.833333333 ) 

 **************************************************************************
     freq (    1) =       4.143200 [THz] =     138.202290 [cm-1]
     freq (    2) =       5.444547 [THz] =     181.610523 [cm-1]
     freq (    3) =      10.258702 [THz] =     342.193466 [cm-1]
     freq (    4) =      12.504349 [THz] =     417.100197 [cm-1]
     freq (    5) =      13.907244 [THz] =     463.895738 [cm-1]
     freq (    6) =      14.207695 [THz] =     473.917704 [cm-1]
 **************************************************************************

     Mode symmetry, C_s (m)     point group:

     freq (   1-   1) =        138.2  [cm-1]   --> A''                
     freq (   2-   2) =        181.6  [cm-1]   --> A'                 
     freq (   3-   3) =        342.2  [cm-1]   --> A'                 
     freq (   4-   4) =        417.1  [cm-1]   --> A'                 
     freq (   5-   5) =        463.9  [cm-1]   --> A''                
     freq (   6-   6) =        473.9  [cm-1]   --> A'                 

     Calculation of q =    0.6666667  -0.0000000   0.6666667
 
     Parallelization info
     --------------------
     sticks:   dense  smooth     PW     G-vecs:    dense   smooth      PW
     Min         125     125     43                 2608     2608     513
     Max         126     126     44                 2611     2611     514
     Sum        1003    1003    349                20875    20875    4111
 
     Using Slab Decomposition
 

     Title: 
     default                                                                    


     bravais-lattice index     =            2
     lattice parameter (alat)  =      10.1899  a.u.
     unit-cell volume          =     264.5151 (a.u.)^3
     number of atoms/cell      =            2
     number of atomic types    =            1
     number of electrons       =         8.00
     number of Kohn-Sham states=            4
     kinetic-energy cutoff     =      70.0000  Ry
     charge density cutoff     =     280.0000  Ry
     Exchange-correlation= PW
                           (   1   4   0   0   0   0   0)

     celldm(1)=  10.189905  celldm(2)=   0.000000  celldm(3)=   0.000000
     celldm(4)=   0.000000  celldm(5)=   0.000000  celldm(6)=   0.000000

     crystal axes: (cart. coord. in units of alat)
               a(1) = (  -0.500000   0.000000   0.500000 )  
               a(2) = (   0.000000   0.500000   0.500000 )  
               a(3) = (  -0.500000   0.500000   0.000000 )  

     reciprocal axes: (cart. coord. in units 2 pi/alat)
               b(1) = ( -1.000000 -1.000000  1.000000 )  
               b(2) = (  1.000000  1.000000  1.000000 )  
               b(3) = ( -1.000000  1.000000 -1.000000 )  


     PseudoPot. # 1 for Si read from file:
     /fastscratch/tsievers/si_ph_benchmark_images//pseudos/Si.nc.UPF
     MD5 check sum: 9e2d726316af3d4752eea8ab0afbb951
     Pseudo is Norm-conserving + core correction, Zval =  4.0
     Generated using ONCVPSP code by D. R. Hamann
     Using radial grid of 1510 points,  6 beta functions with: 
                l(1) =   0
                l(2) =   0
                l(3) =   1
                l(4) =   1
                l(5) =   2
                l(6) =   2

     atomic species   valence    mass     pseudopotential
        Si             4.00    28.08550     Si( 1.00)

     48 Sym. Ops., with inversion, found



   Cartesian axes

     site n.     atom                  positions (alat units)
         1           Si  tau(   1) = (   0.0000000   0.0000000   0.0000000  )
         2           Si  tau(   2) = (  -0.2500000   0.2500000   0.2500000  )

     number of k points=   468

     Number of k-points >= 100: set verbosity='high' to print them.

     Dense  grid:    20875 G-vectors     FFT dimensions: (  40,  40,  40)

     Estimated max dynamical RAM per process >       2.66 MB

     Estimated total dynamical RAM >     127.75 MB

     The potential is recalculated from file :
     /fastscratch/tsievers/QE_TMP_DIR/_ph1/si_ph_bench_nimages_2_n_procs_96_4.save/charge-density

     Starting wfcs are    8 atomic wfcs

     Band Structure Calculation
     Davidson diagonalization with overlap

     ethr =  1.25E-10,  avg # of iterations = 12.8

     total cpu time spent up to now is        9.6 secs

     End of band structure calculation

     Number of k-points >= 100: set verbosity='high' to print the bands.

     highest occupied level (ev):     6.1106

     Writing config to output data dir /fastscratch/tsievers/QE_TMP_DIR/_ph1/si_ph_bench_nimages_2_n_procs_96_4.save/

     default                                                                    

     bravais-lattice index     =            2
     lattice parameter (alat)  =      10.1899  a.u.
     unit-cell volume          =     264.5151 (a.u.)^3
     number of atoms/cell      =            2
     number of atomic types    =            1
     kinetic-energy cut-off    =      70.0000  Ry
     charge density cut-off    =     280.0000  Ry
     convergence threshold     =      1.0E-15
     beta                      =       0.7000
     number of iterations used =            4
     Exchange-correlation= PW
                           (   1   4   0   0   0   0   0)


     celldm(1)=   10.18990  celldm(2)=    0.00000  celldm(3)=    0.00000
     celldm(4)=    0.00000  celldm(5)=    0.00000  celldm(6)=    0.00000

     crystal axes: (cart. coord. in units of alat)
               a(1) = ( -0.5000  0.0000  0.5000 )  
               a(2) = (  0.0000  0.5000  0.5000 )  
               a(3) = ( -0.5000  0.5000  0.0000 )  

     reciprocal axes: (cart. coord. in units 2 pi/alat)
               b(1) = ( -1.0000 -1.0000  1.0000 )  
               b(2) = (  1.0000  1.0000  1.0000 )  
               b(3) = ( -1.0000  1.0000 -1.0000 )  


     Atoms inside the unit cell: 

     Cartesian axes

     site n.  atom      mass           positions (alat units)
        1     Si  28.0855   tau(    1) = (    0.00000    0.00000    0.00000  )
        2     Si  28.0855   tau(    2) = (   -0.25000    0.25000    0.25000  )

     Computing dynamical matrix for 
                    q = (   0.6666667  -0.0000000   0.6666667 )
 
      4 Sym.Ops. (no q -> -q+G )


     G cutoff =  736.4420  (   2611 G-vectors)     FFT grid: ( 40, 40, 40)
     number of k points=   468

     PseudoPot. # 1 for Si read from file:
     /fastscratch/tsievers/si_ph_benchmark_images//pseudos/Si.nc.UPF
     MD5 check sum: 9e2d726316af3d4752eea8ab0afbb951
     Pseudo is Norm-conserving + core correction, Zval =  4.0
     Generated using ONCVPSP code by D. R. Hamann
     Using radial grid of 1510 points,  6 beta functions with: 
                l(1) =   0
                l(2) =   0
                l(3) =   1
                l(4) =   1
                l(5) =   2
                l(6) =   2

     Mode symmetry, C_2v (mm2)  point group:


     Atomic displacements:
     There are    6 irreducible representations

     Representation     1      1 modes -  To be done

     Representation     2      1 modes -  To be done

     Representation     3      1 modes -  To be done

     Representation     4      1 modes -  To be done

     Representation     5      1 modes -  To be done

     Representation     6      1 modes -  To be done



     Alpha used in Ewald sum =   2.8000
     PHONON       :   2m 1.54s CPU   2m23.35s WALL



     Representation #   1 mode #   1

     Self-consistent Calculation

      iter #   1 total cpu time :   144.2 secs   av.it.:   6.3
      thresh= 1.000E-02 alpha_mix =  0.700 |ddv_scf|^2 =  4.556E-06

      iter #   2 total cpu time :   145.7 secs   av.it.:  10.5
      thresh= 2.134E-04 alpha_mix =  0.700 |ddv_scf|^2 =  6.181E-06

      iter #   3 total cpu time :   146.3 secs   av.it.:   9.7
      thresh= 2.486E-04 alpha_mix =  0.700 |ddv_scf|^2 =  8.667E-08

      iter #   4 total cpu time :   147.0 secs   av.it.:   9.8
      thresh= 2.944E-05 alpha_mix =  0.700 |ddv_scf|^2 =  3.360E-10

      iter #   5 total cpu time :   149.2 secs   av.it.:  10.3
      thresh= 1.833E-06 alpha_mix =  0.700 |ddv_scf|^2 =  2.595E-12

      iter #   6 total cpu time :   150.1 secs   av.it.:  10.3
      thresh= 1.611E-07 alpha_mix =  0.700 |ddv_scf|^2 =  2.765E-14

      iter #   7 total cpu time :   151.3 secs   av.it.:  10.5
      thresh= 1.663E-08 alpha_mix =  0.700 |ddv_scf|^2 =  3.845E-15

      iter #   8 total cpu time :   152.1 secs   av.it.:  10.1
      thresh= 6.201E-09 alpha_mix =  0.700 |ddv_scf|^2 =  2.829E-15

      iter #   9 total cpu time :   153.8 secs   av.it.:   9.6
      thresh= 5.318E-09 alpha_mix =  0.700 |ddv_scf|^2 =  1.221E-17

     End of self-consistent calculation

     Convergence has been achieved 


     Representation #   2 mode #   2

     Self-consistent Calculation

      iter #   1 total cpu time :   154.5 secs   av.it.:   6.6
      thresh= 1.000E-02 alpha_mix =  0.700 |ddv_scf|^2 =  1.490E-05

      iter #   2 total cpu time :   155.2 secs   av.it.:  10.4
      thresh= 3.859E-04 alpha_mix =  0.700 |ddv_scf|^2 =  2.600E-05

      iter #   3 total cpu time :   156.1 secs   av.it.:   9.5
      thresh= 5.099E-04 alpha_mix =  0.700 |ddv_scf|^2 =  1.122E-07

      iter #   4 total cpu time :   157.0 secs   av.it.:   9.8
      thresh= 3.350E-05 alpha_mix =  0.700 |ddv_scf|^2 =  5.457E-10

      iter #   5 total cpu time :   157.7 secs   av.it.:  10.0
      thresh= 2.336E-06 alpha_mix =  0.700 |ddv_scf|^2 =  5.759E-12

      iter #   6 total cpu time :   159.5 secs   av.it.:  10.1
      thresh= 2.400E-07 alpha_mix =  0.700 |ddv_scf|^2 =  1.247E-13

      iter #   7 total cpu time :   160.2 secs   av.it.:  10.0
      thresh= 3.532E-08 alpha_mix =  0.700 |ddv_scf|^2 =  1.482E-15

      iter #   8 total cpu time :   161.2 secs   av.it.:  10.4
      thresh= 3.849E-09 alpha_mix =  0.700 |ddv_scf|^2 =  1.188E-15

      iter #   9 total cpu time :   161.8 secs   av.it.:   9.6
      thresh= 3.446E-09 alpha_mix =  0.700 |ddv_scf|^2 =  2.291E-17

     End of self-consistent calculation

     Convergence has been achieved 


     Representation #   3 mode #   3

     Self-consistent Calculation

      iter #   1 total cpu time :   162.7 secs   av.it.:   6.0
      thresh= 1.000E-02 alpha_mix =  0.700 |ddv_scf|^2 =  9.601E-07

      iter #   2 total cpu time :   163.4 secs   av.it.:  10.3
      thresh= 9.798E-05 alpha_mix =  0.700 |ddv_scf|^2 =  1.742E-07

      iter #   3 total cpu time :   164.4 secs   av.it.:  10.0
      thresh= 4.173E-05 alpha_mix =  0.700 |ddv_scf|^2 =  3.661E-10

      iter #   4 total cpu time :   165.5 secs   av.it.:  10.1
      thresh= 1.913E-06 alpha_mix =  0.700 |ddv_scf|^2 =  2.626E-13

      iter #   5 total cpu time :   166.2 secs   av.it.:  10.2
      thresh= 5.124E-08 alpha_mix =  0.700 |ddv_scf|^2 =  8.746E-15

      iter #   6 total cpu time :   167.1 secs   av.it.:  10.1
      thresh= 9.352E-09 alpha_mix =  0.700 |ddv_scf|^2 =  7.756E-17

     End of self-consistent calculation

     Convergence has been achieved 


     Representation #   4 mode #   4

     Self-consistent Calculation

      iter #   1 total cpu time :   167.7 secs   av.it.:   5.2
      thresh= 1.000E-02 alpha_mix =  0.700 |ddv_scf|^2 =  2.013E-08

      iter #   2 total cpu time :   168.4 secs   av.it.:  10.1
      thresh= 1.419E-05 alpha_mix =  0.700 |ddv_scf|^2 =  9.534E-10

      iter #   3 total cpu time :   169.1 secs   av.it.:  10.2
      thresh= 3.088E-06 alpha_mix =  0.700 |ddv_scf|^2 =  6.691E-12

      iter #   4 total cpu time :   170.1 secs   av.it.:   9.9
      thresh= 2.587E-07 alpha_mix =  0.700 |ddv_scf|^2 =  1.366E-13

      iter #   5 total cpu time :   170.8 secs   av.it.:  10.1
      thresh= 3.696E-08 alpha_mix =  0.700 |ddv_scf|^2 =  1.111E-15

      iter #   6 total cpu time :   171.5 secs   av.it.:  10.2
      thresh= 3.333E-09 alpha_mix =  0.700 |ddv_scf|^2 =  2.926E-18

     End of self-consistent calculation

     Convergence has been achieved 


     Representation #   5 mode #   5

     Self-consistent Calculation

      iter #   1 total cpu time :   172.0 secs   av.it.:   5.3
      thresh= 1.000E-02 alpha_mix =  0.700 |ddv_scf|^2 =  1.234E-07

      iter #   2 total cpu time :   172.7 secs   av.it.:  10.6
      thresh= 3.512E-05 alpha_mix =  0.700 |ddv_scf|^2 =  6.863E-08

      iter #   3 total cpu time :   173.4 secs   av.it.:  10.0
      thresh= 2.620E-05 alpha_mix =  0.700 |ddv_scf|^2 =  4.392E-09

      iter #   4 total cpu time :   174.1 secs   av.it.:  10.0
      thresh= 6.627E-06 alpha_mix =  0.700 |ddv_scf|^2 =  5.530E-11

      iter #   5 total cpu time :   176.0 secs   av.it.:  10.4
      thresh= 7.436E-07 alpha_mix =  0.700 |ddv_scf|^2 =  7.588E-13

      iter #   6 total cpu time :   176.7 secs   av.it.:  10.3
      thresh= 8.711E-08 alpha_mix =  0.700 |ddv_scf|^2 =  1.088E-15

      iter #   7 total cpu time :   177.4 secs   av.it.:  10.3
      thresh= 3.299E-09 alpha_mix =  0.700 |ddv_scf|^2 =  4.316E-17

     End of self-consistent calculation

     Convergence has been achieved 


     Representation #   6 mode #   6

     Self-consistent Calculation

      iter #   1 total cpu time :   178.1 secs   av.it.:   6.4
      thresh= 1.000E-02 alpha_mix =  0.700 |ddv_scf|^2 =  6.308E-06

      iter #   2 total cpu time :   178.8 secs   av.it.:  10.4
      thresh= 2.512E-04 alpha_mix =  0.700 |ddv_scf|^2 =  8.090E-06

      iter #   3 total cpu time :   179.4 secs   av.it.:   9.7
      thresh= 2.844E-04 alpha_mix =  0.700 |ddv_scf|^2 =  1.664E-09

      iter #   4 total cpu time :   180.1 secs   av.it.:  10.2
      thresh= 4.079E-06 alpha_mix =  0.700 |ddv_scf|^2 =  7.694E-11

      iter #   5 total cpu time :   180.9 secs   av.it.:  10.4
      thresh= 8.771E-07 alpha_mix =  0.700 |ddv_scf|^2 =  3.533E-13

      iter #   6 total cpu time :   182.6 secs   av.it.:  10.3
      thresh= 5.944E-08 alpha_mix =  0.700 |ddv_scf|^2 =  1.276E-14

      iter #   7 total cpu time :   183.2 secs   av.it.:  10.2
      thresh= 1.130E-08 alpha_mix =  0.700 |ddv_scf|^2 =  4.012E-17

     End of self-consistent calculation

     Convergence has been achieved 
 
     Number of q in the star =   12
     List of q in the star:
          1   0.666666667   0.000000000   0.666666667
          2  -0.666666667   0.000000000  -0.666666667
          3  -0.666666667   0.000000000   0.666666667
          4   0.666666667   0.000000000  -0.666666667
          5   0.000000000   0.666666667   0.666666667
          6   0.000000000   0.666666667  -0.666666667
          7   0.000000000  -0.666666667  -0.666666667
          8   0.666666667   0.666666667   0.000000000
          9   0.666666667  -0.666666667   0.000000000
         10  -0.666666667  -0.666666667   0.000000000
         11  -0.666666667   0.666666667   0.000000000
         12   0.000000000  -0.666666667   0.666666667

     Diagonalizing the dynamical matrix

     q = (    0.666666667  -0.000000000   0.666666667 ) 

 **************************************************************************
     freq (    1) =       4.251827 [THz] =     141.825667 [cm-1]
     freq (    2) =       6.420779 [THz] =     214.174147 [cm-1]
     freq (    3) =      10.134245 [THz] =     338.042023 [cm-1]
     freq (    4) =      11.355098 [THz] =     378.765300 [cm-1]
     freq (    5) =      13.957412 [THz] =     465.569156 [cm-1]
     freq (    6) =      14.514469 [THz] =     484.150568 [cm-1]
 **************************************************************************

     Mode symmetry, C_2v (mm2)  point group:

     freq (   1-   1) =        141.8  [cm-1]   --> B_1  D_3  S_3      
     freq (   2-   2) =        214.2  [cm-1]   --> B_2  D_4  S_4      
     freq (   3-   3) =        338.0  [cm-1]   --> A_1  D_1  S_1      
     freq (   4-   4) =        378.8  [cm-1]   --> B_2  D_4  S_4      
     freq (   5-   5) =        465.6  [cm-1]   --> A_2  D_2  S_2      
     freq (   6-   6) =        484.2  [cm-1]   --> A_1  D_1  S_1      

     Calculation of q =    0.0000000  -1.0000000   0.0000000
 
     Parallelization info
     --------------------
     sticks:   dense  smooth     PW     G-vecs:    dense   smooth      PW
     Min         125     125     42                 2608     2608     501
     Max         126     126     43                 2611     2611     503
     Sum        1003    1003    337                20875    20875    4015
 
     Using Slab Decomposition
 

     Title: 
     default                                                                    


     bravais-lattice index     =            2
     lattice parameter (alat)  =      10.1899  a.u.
     unit-cell volume          =     264.5151 (a.u.)^3
     number of atoms/cell      =            2
     number of atomic types    =            1
     number of electrons       =         8.00
     number of Kohn-Sham states=            4
     kinetic-energy cutoff     =      70.0000  Ry
     charge density cutoff     =     280.0000  Ry
     Exchange-correlation= PW
                           (   1   4   0   0   0   0   0)

     celldm(1)=  10.189905  celldm(2)=   0.000000  celldm(3)=   0.000000
     celldm(4)=   0.000000  celldm(5)=   0.000000  celldm(6)=   0.000000

     crystal axes: (cart. coord. in units of alat)
               a(1) = (  -0.500000   0.000000   0.500000 )  
               a(2) = (   0.000000   0.500000   0.500000 )  
               a(3) = (  -0.500000   0.500000   0.000000 )  

     reciprocal axes: (cart. coord. in units 2 pi/alat)
               b(1) = ( -1.000000 -1.000000  1.000000 )  
               b(2) = (  1.000000  1.000000  1.000000 )  
               b(3) = ( -1.000000  1.000000 -1.000000 )  


     PseudoPot. # 1 for Si read from file:
     /fastscratch/tsievers/si_ph_benchmark_images//pseudos/Si.nc.UPF
     MD5 check sum: 9e2d726316af3d4752eea8ab0afbb951
     Pseudo is Norm-conserving + core correction, Zval =  4.0
     Generated using ONCVPSP code by D. R. Hamann
     Using radial grid of 1510 points,  6 beta functions with: 
                l(1) =   0
                l(2) =   0
                l(3) =   1
                l(4) =   1
                l(5) =   2
                l(6) =   2

     atomic species   valence    mass     pseudopotential
        Si             4.00    28.08550     Si( 1.00)

     48 Sym. Ops., with inversion, found



   Cartesian axes

     site n.     atom                  positions (alat units)
         1           Si  tau(   1) = (   0.0000000   0.0000000   0.0000000  )
         2           Si  tau(   2) = (  -0.2500000   0.2500000   0.2500000  )

     number of k points=   126

     Number of k-points >= 100: set verbosity='high' to print them.

     Dense  grid:    20875 G-vectors     FFT dimensions: (  40,  40,  40)

     Estimated max dynamical RAM per process >       2.66 MB

     Estimated total dynamical RAM >     127.87 MB

     The potential is recalculated from file :
     /fastscratch/tsievers/QE_TMP_DIR/_ph1/si_ph_bench_nimages_2_n_procs_96_4.save/charge-density

     Starting wfcs are    8 atomic wfcs

     Band Structure Calculation
     Davidson diagonalization with overlap

     ethr =  1.25E-10,  avg # of iterations = 12.8

     total cpu time spent up to now is       10.5 secs

     End of band structure calculation

     Number of k-points >= 100: set verbosity='high' to print the bands.

     highest occupied level (ev):     6.1106

     Writing config to output data dir /fastscratch/tsievers/QE_TMP_DIR/_ph1/si_ph_bench_nimages_2_n_procs_96_4.save/

     default                                                                    

     bravais-lattice index     =            2
     lattice parameter (alat)  =      10.1899  a.u.
     unit-cell volume          =     264.5151 (a.u.)^3
     number of atoms/cell      =            2
     number of atomic types    =            1
     kinetic-energy cut-off    =      70.0000  Ry
     charge density cut-off    =     280.0000  Ry
     convergence threshold     =      1.0E-15
     beta                      =       0.7000
     number of iterations used =            4
     Exchange-correlation= PW
                           (   1   4   0   0   0   0   0)


     celldm(1)=   10.18990  celldm(2)=    0.00000  celldm(3)=    0.00000
     celldm(4)=    0.00000  celldm(5)=    0.00000  celldm(6)=    0.00000

     crystal axes: (cart. coord. in units of alat)
               a(1) = ( -0.5000  0.0000  0.5000 )  
               a(2) = (  0.0000  0.5000  0.5000 )  
               a(3) = ( -0.5000  0.5000  0.0000 )  

     reciprocal axes: (cart. coord. in units 2 pi/alat)
               b(1) = ( -1.0000 -1.0000  1.0000 )  
               b(2) = (  1.0000  1.0000  1.0000 )  
               b(3) = ( -1.0000  1.0000 -1.0000 )  


     Atoms inside the unit cell: 

     Cartesian axes

     site n.  atom      mass           positions (alat units)
        1     Si  28.0855   tau(    1) = (    0.00000    0.00000    0.00000  )
        2     Si  28.0855   tau(    2) = (   -0.25000    0.25000    0.25000  )

     Computing dynamical matrix for 
                    q = (   0.0000000  -1.0000000   0.0000000 )
 
     17 Sym.Ops. (with q -> -q+G )


     G cutoff =  736.4420  (   2611 G-vectors)     FFT grid: ( 40, 40, 40)
     number of k points=   126

     PseudoPot. # 1 for Si read from file:
     /fastscratch/tsievers/si_ph_benchmark_images//pseudos/Si.nc.UPF
     MD5 check sum: 9e2d726316af3d4752eea8ab0afbb951
     Pseudo is Norm-conserving + core correction, Zval =  4.0
     Generated using ONCVPSP code by D. R. Hamann
     Using radial grid of 1510 points,  6 beta functions with: 
                l(1) =   0
                l(2) =   0
                l(3) =   1
                l(4) =   1
                l(5) =   2
                l(6) =   2


     Atomic displacements:
     There are    3 irreducible representations

     Representation     1      2 modes -  To be done

     Representation     2      2 modes -  To be done

     Representation     3      2 modes -  To be done



     Alpha used in Ewald sum =   2.8000
     PHONON       :   2m35.79s CPU   3m 5.30s WALL



     Representation #   1 modes #   1   2

     Self-consistent Calculation

      iter #   1 total cpu time :   185.7 secs   av.it.:   5.3
      thresh= 1.000E-02 alpha_mix =  0.700 |ddv_scf|^2 =  3.545E-09

      iter #   2 total cpu time :   187.4 secs   av.it.:  11.2
      thresh= 5.954E-06 alpha_mix =  0.700 |ddv_scf|^2 =  1.954E-10

      iter #   3 total cpu time :   188.0 secs   av.it.:  11.3
      thresh= 1.398E-06 alpha_mix =  0.700 |ddv_scf|^2 =  1.324E-12

      iter #   4 total cpu time :   188.6 secs   av.it.:  10.9
      thresh= 1.151E-07 alpha_mix =  0.700 |ddv_scf|^2 =  2.008E-14

      iter #   5 total cpu time :   189.2 secs   av.it.:  11.2
      thresh= 1.417E-08 alpha_mix =  0.700 |ddv_scf|^2 =  3.244E-17

     End of self-consistent calculation

     Convergence has been achieved 


     Representation #   2 modes #   3   4

     Self-consistent Calculation

      iter #   1 total cpu time :   190.3 secs   av.it.:   6.5
      thresh= 1.000E-02 alpha_mix =  0.700 |ddv_scf|^2 =  2.282E-06

      iter #   2 total cpu time :   192.5 secs   av.it.:  11.1
      thresh= 1.511E-04 alpha_mix =  0.700 |ddv_scf|^2 =  3.234E-06

      iter #   3 total cpu time :   193.1 secs   av.it.:  10.4
      thresh= 1.798E-04 alpha_mix =  0.700 |ddv_scf|^2 =  5.612E-10

      iter #   4 total cpu time :   194.2 secs   av.it.:  10.9
      thresh= 2.369E-06 alpha_mix =  0.700 |ddv_scf|^2 =  2.471E-11

      iter #   5 total cpu time :   195.6 secs   av.it.:  11.1
      thresh= 4.971E-07 alpha_mix =  0.700 |ddv_scf|^2 =  2.169E-13

      iter #   6 total cpu time :   196.4 secs   av.it.:  11.0
      thresh= 4.657E-08 alpha_mix =  0.700 |ddv_scf|^2 =  5.054E-15

      iter #   7 total cpu time :   196.9 secs   av.it.:  10.9
      thresh= 7.109E-09 alpha_mix =  0.700 |ddv_scf|^2 =  5.035E-17

     End of self-consistent calculation

     Convergence has been achieved 


     Representation #   3 modes #   5   6

     Self-consistent Calculation

      iter #   1 total cpu time :   197.4 secs   av.it.:   6.4
      thresh= 1.000E-02 alpha_mix =  0.700 |ddv_scf|^2 =  4.201E-07

      iter #   2 total cpu time :   198.7 secs   av.it.:  11.4
      thresh= 6.481E-05 alpha_mix =  0.700 |ddv_scf|^2 =  1.163E-07

      iter #   3 total cpu time :   199.9 secs   av.it.:  11.1
      thresh= 3.410E-05 alpha_mix =  0.700 |ddv_scf|^2 =  1.245E-10

      iter #   4 total cpu time :   200.5 secs   av.it.:  11.2
      thresh= 1.116E-06 alpha_mix =  0.700 |ddv_scf|^2 =  1.015E-13

      iter #   5 total cpu time :   201.1 secs   av.it.:  11.1
      thresh= 3.186E-08 alpha_mix =  0.700 |ddv_scf|^2 =  5.400E-15

      iter #   6 total cpu time :   201.9 secs   av.it.:  11.1
      thresh= 7.348E-09 alpha_mix =  0.700 |ddv_scf|^2 =  9.098E-18

     End of self-consistent calculation

     Convergence has been achieved 
 
     Number of q in the star =    3
     List of q in the star:
          1   0.000000000  -1.000000000   0.000000000
          2  -1.000000000   0.000000000   0.000000000
          3   0.000000000   0.000000000  -1.000000000

     Diagonalizing the dynamical matrix

     q = (    0.000000000  -1.000000000   0.000000000 ) 

 **************************************************************************
     freq (    1) =       4.101569 [THz] =     136.813618 [cm-1]
     freq (    2) =       4.101569 [THz] =     136.813618 [cm-1]
     freq (    3) =      12.261812 [THz] =     409.010032 [cm-1]
     freq (    4) =      12.261812 [THz] =     409.010032 [cm-1]
     freq (    5) =      13.855555 [THz] =     462.171553 [cm-1]
     freq (    6) =      13.855555 [THz] =     462.171553 [cm-1]
 **************************************************************************

     Calculation of q =    0.6666667  -0.3333333   1.0000000
 
     Parallelization info
     --------------------
     sticks:   dense  smooth     PW     G-vecs:    dense   smooth      PW
     Min         125     125     45                 2608     2608     558
     Max         126     126     46                 2611     2611     560
     Sum        1003    1003    361                20875    20875    4477
 
     Using Slab Decomposition
 

     Title: 
     default                                                                    


     bravais-lattice index     =            2
     lattice parameter (alat)  =      10.1899  a.u.
     unit-cell volume          =     264.5151 (a.u.)^3
     number of atoms/cell      =            2
     number of atomic types    =            1
     number of electrons       =         8.00
     number of Kohn-Sham states=            4
     kinetic-energy cutoff     =      70.0000  Ry
     charge density cutoff     =     280.0000  Ry
     Exchange-correlation= PW
                           (   1   4   0   0   0   0   0)

     celldm(1)=  10.189905  celldm(2)=   0.000000  celldm(3)=   0.000000
     celldm(4)=   0.000000  celldm(5)=   0.000000  celldm(6)=   0.000000

     crystal axes: (cart. coord. in units of alat)
               a(1) = (  -0.500000   0.000000   0.500000 )  
               a(2) = (   0.000000   0.500000   0.500000 )  
               a(3) = (  -0.500000   0.500000   0.000000 )  

     reciprocal axes: (cart. coord. in units 2 pi/alat)
               b(1) = ( -1.000000 -1.000000  1.000000 )  
               b(2) = (  1.000000  1.000000  1.000000 )  
               b(3) = ( -1.000000  1.000000 -1.000000 )  


     PseudoPot. # 1 for Si read from file:
     /fastscratch/tsievers/si_ph_benchmark_images//pseudos/Si.nc.UPF
     MD5 check sum: 9e2d726316af3d4752eea8ab0afbb951
     Pseudo is Norm-conserving + core correction, Zval =  4.0
     Generated using ONCVPSP code by D. R. Hamann
     Using radial grid of 1510 points,  6 beta functions with: 
                l(1) =   0
                l(2) =   0
                l(3) =   1
                l(4) =   1
                l(5) =   2
                l(6) =   2

     atomic species   valence    mass     pseudopotential
        Si             4.00    28.08550     Si( 1.00)

     48 Sym. Ops., with inversion, found



   Cartesian axes

     site n.     atom                  positions (alat units)
         1           Si  tau(   1) = (   0.0000000   0.0000000   0.0000000  )
         2           Si  tau(   2) = (  -0.2500000   0.2500000   0.2500000  )

     number of k points=   864

     Number of k-points >= 100: set verbosity='high' to print them.

     Dense  grid:    20875 G-vectors     FFT dimensions: (  40,  40,  40)

     Estimated max dynamical RAM per process >       2.68 MB

     Estimated total dynamical RAM >     128.48 MB

     The potential is recalculated from file :
     /fastscratch/tsievers/QE_TMP_DIR/_ph1/si_ph_bench_nimages_2_n_procs_96_4.save/charge-density

     Starting wfcs are    8 atomic wfcs

     Band Structure Calculation
     Davidson diagonalization with overlap

     ethr =  1.25E-10,  avg # of iterations = 12.8

     total cpu time spent up to now is       13.3 secs

     End of band structure calculation

     Number of k-points >= 100: set verbosity='high' to print the bands.

     highest occupied level (ev):     6.1106

     Writing config to output data dir /fastscratch/tsievers/QE_TMP_DIR/_ph1/si_ph_bench_nimages_2_n_procs_96_4.save/

     default                                                                    

     bravais-lattice index     =            2
     lattice parameter (alat)  =      10.1899  a.u.
     unit-cell volume          =     264.5151 (a.u.)^3
     number of atoms/cell      =            2
     number of atomic types    =            1
     kinetic-energy cut-off    =      70.0000  Ry
     charge density cut-off    =     280.0000  Ry
     convergence threshold     =      1.0E-15
     beta                      =       0.7000
     number of iterations used =            4
     Exchange-correlation= PW
                           (   1   4   0   0   0   0   0)


     celldm(1)=   10.18990  celldm(2)=    0.00000  celldm(3)=    0.00000
     celldm(4)=    0.00000  celldm(5)=    0.00000  celldm(6)=    0.00000

     crystal axes: (cart. coord. in units of alat)
               a(1) = ( -0.5000  0.0000  0.5000 )  
               a(2) = (  0.0000  0.5000  0.5000 )  
               a(3) = ( -0.5000  0.5000  0.0000 )  

     reciprocal axes: (cart. coord. in units 2 pi/alat)
               b(1) = ( -1.0000 -1.0000  1.0000 )  
               b(2) = (  1.0000  1.0000  1.0000 )  
               b(3) = ( -1.0000  1.0000 -1.0000 )  


     Atoms inside the unit cell: 

     Cartesian axes

     site n.  atom      mass           positions (alat units)
        1     Si  28.0855   tau(    1) = (    0.00000    0.00000    0.00000  )
        2     Si  28.0855   tau(    2) = (   -0.25000    0.25000    0.25000  )

     Computing dynamical matrix for 
                    q = (   0.6666667  -0.3333333   1.0000000 )
 
      2 Sym.Ops. (no q -> -q+G )


     G cutoff =  736.4420  (   2611 G-vectors)     FFT grid: ( 40, 40, 40)
     number of k points=   864

     PseudoPot. # 1 for Si read from file:
     /fastscratch/tsievers/si_ph_benchmark_images//pseudos/Si.nc.UPF
     MD5 check sum: 9e2d726316af3d4752eea8ab0afbb951
     Pseudo is Norm-conserving + core correction, Zval =  4.0
     Generated using ONCVPSP code by D. R. Hamann
     Using radial grid of 1510 points,  6 beta functions with: 
                l(1) =   0
                l(2) =   0
                l(3) =   1
                l(4) =   1
                l(5) =   2
                l(6) =   2


     Atomic displacements:
     There are    6 irreducible representations

     Representation     1      1 modes -  To be done

     Representation     2      1 modes -  To be done

     Representation     3      1 modes -  To be done

     Representation     4      1 modes -  To be done

     Representation     5      1 modes -  To be done

     Representation     6      1 modes -  To be done



     Alpha used in Ewald sum =   2.8000
     PHONON       :   2m52.82s CPU   3m27.09s WALL



     Representation #   1 mode #   1

     Self-consistent Calculation

      iter #   1 total cpu time :   207.9 secs   av.it.:   6.1
      thresh= 1.000E-02 alpha_mix =  0.700 |ddv_scf|^2 =  1.830E-06

      iter #   2 total cpu time :   209.1 secs   av.it.:  10.6
      thresh= 1.353E-04 alpha_mix =  0.700 |ddv_scf|^2 =  5.634E-06

      iter #   3 total cpu time :   210.3 secs   av.it.:   9.3
      thresh= 2.374E-04 alpha_mix =  0.700 |ddv_scf|^2 =  1.561E-07

      iter #   4 total cpu time :   211.8 secs   av.it.:   9.8
      thresh= 3.951E-05 alpha_mix =  0.700 |ddv_scf|^2 =  2.973E-10

      iter #   5 total cpu time :   213.3 secs   av.it.:  10.6
      thresh= 1.724E-06 alpha_mix =  0.700 |ddv_scf|^2 =  1.811E-11

      iter #   6 total cpu time :   214.7 secs   av.it.:  10.3
      thresh= 4.256E-07 alpha_mix =  0.700 |ddv_scf|^2 =  9.305E-14

      iter #   7 total cpu time :   216.6 secs   av.it.:  10.5
      thresh= 3.050E-08 alpha_mix =  0.700 |ddv_scf|^2 =  3.950E-15

      iter #   8 total cpu time :   217.7 secs   av.it.:  10.7
      thresh= 6.285E-09 alpha_mix =  0.700 |ddv_scf|^2 =  3.880E-16

     End of self-consistent calculation

     Convergence has been achieved 


     Representation #   2 mode #   2

     Self-consistent Calculation

      iter #   1 total cpu time :   218.9 secs   av.it.:   5.9
      thresh= 1.000E-02 alpha_mix =  0.700 |ddv_scf|^2 =  3.838E-07

      iter #   2 total cpu time :   220.6 secs   av.it.:  10.8
      thresh= 6.195E-05 alpha_mix =  0.700 |ddv_scf|^2 =  2.116E-07

      iter #   3 total cpu time :   221.7 secs   av.it.:  10.2
      thresh= 4.601E-05 alpha_mix =  0.700 |ddv_scf|^2 =  2.062E-09

      iter #   4 total cpu time :   223.2 secs   av.it.:  10.5
      thresh= 4.541E-06 alpha_mix =  0.700 |ddv_scf|^2 =  1.331E-10

      iter #   5 total cpu time :   224.5 secs   av.it.:  10.5
      thresh= 1.154E-06 alpha_mix =  0.700 |ddv_scf|^2 =  1.231E-12

      iter #   6 total cpu time :   226.0 secs   av.it.:  10.6
      thresh= 1.109E-07 alpha_mix =  0.700 |ddv_scf|^2 =  2.683E-14

      iter #   7 total cpu time :   227.3 secs   av.it.:  10.7
      thresh= 1.638E-08 alpha_mix =  0.700 |ddv_scf|^2 =  1.106E-15

      iter #   8 total cpu time :   228.4 secs   av.it.:  10.7
      thresh= 3.326E-09 alpha_mix =  0.700 |ddv_scf|^2 =  3.364E-17

     End of self-consistent calculation

     Convergence has been achieved 


     Representation #   3 mode #   3

     Self-consistent Calculation

      iter #   1 total cpu time :   229.4 secs   av.it.:   6.3
      thresh= 1.000E-02 alpha_mix =  0.700 |ddv_scf|^2 =  2.504E-06

      iter #   2 total cpu time :   231.3 secs   av.it.:  10.7
      thresh= 1.582E-04 alpha_mix =  0.700 |ddv_scf|^2 =  1.676E-06

      iter #   3 total cpu time :   232.8 secs   av.it.:  10.1
      thresh= 1.295E-04 alpha_mix =  0.700 |ddv_scf|^2 =  3.982E-09

      iter #   4 total cpu time :   235.1 secs   av.it.:  10.5
      thresh= 6.310E-06 alpha_mix =  0.700 |ddv_scf|^2 =  1.743E-10

      iter #   5 total cpu time :   237.5 secs   av.it.:  10.5
      thresh= 1.320E-06 alpha_mix =  0.700 |ddv_scf|^2 =  2.510E-12

      iter #   6 total cpu time :   238.7 secs   av.it.:  10.7
      thresh= 1.584E-07 alpha_mix =  0.700 |ddv_scf|^2 =  2.868E-14

      iter #   7 total cpu time :   240.4 secs   av.it.:  10.5
      thresh= 1.693E-08 alpha_mix =  0.700 |ddv_scf|^2 =  1.501E-15

      iter #   8 total cpu time :   243.6 secs   av.it.:  10.6
      thresh= 3.874E-09 alpha_mix =  0.700 |ddv_scf|^2 =  1.353E-17

     End of self-consistent calculation

     Convergence has been achieved 


     Representation #   4 mode #   4

     Self-consistent Calculation

      iter #   1 total cpu time :   244.6 secs   av.it.:   6.8
      thresh= 1.000E-02 alpha_mix =  0.700 |ddv_scf|^2 =  6.054E-05

      iter #   2 total cpu time :   245.8 secs   av.it.:  10.2
      thresh= 7.781E-04 alpha_mix =  0.700 |ddv_scf|^2 =  2.929E-04

      iter #   3 total cpu time :   246.9 secs   av.it.:   9.0
      thresh= 1.711E-03 alpha_mix =  0.700 |ddv_scf|^2 =  5.314E-08

      iter #   4 total cpu time :   248.1 secs   av.it.:  10.2
      thresh= 2.305E-05 alpha_mix =  0.700 |ddv_scf|^2 =  1.293E-09

      iter #   5 total cpu time :   249.4 secs   av.it.:  10.1
      thresh= 3.595E-06 alpha_mix =  0.700 |ddv_scf|^2 =  1.175E-11

      iter #   6 total cpu time :   250.9 secs   av.it.:  10.3
      thresh= 3.428E-07 alpha_mix =  0.700 |ddv_scf|^2 =  2.801E-13

      iter #   7 total cpu time :   252.1 secs   av.it.:   9.7
      thresh= 5.292E-08 alpha_mix =  0.700 |ddv_scf|^2 =  3.045E-14

      iter #   8 total cpu time :   253.4 secs   av.it.:   9.4
      thresh= 1.745E-08 alpha_mix =  0.700 |ddv_scf|^2 =  7.197E-15

      iter #   9 total cpu time :   254.4 secs   av.it.:   9.6
      thresh= 8.484E-09 alpha_mix =  0.700 |ddv_scf|^2 =  2.094E-16

     End of self-consistent calculation

     Convergence has been achieved 


     Representation #   5 mode #   5

     Self-consistent Calculation

      iter #   1 total cpu time :   255.6 secs   av.it.:   6.1
      thresh= 1.000E-02 alpha_mix =  0.700 |ddv_scf|^2 =  1.110E-06

      iter #   2 total cpu time :   257.1 secs   av.it.:  10.6
      thresh= 1.054E-04 alpha_mix =  0.700 |ddv_scf|^2 =  1.022E-06

      iter #   3 total cpu time :   258.3 secs   av.it.:   9.8
      thresh= 1.011E-04 alpha_mix =  0.700 |ddv_scf|^2 =  2.773E-07

      iter #   4 total cpu time :   259.6 secs   av.it.:   9.2
      thresh= 5.266E-05 alpha_mix =  0.700 |ddv_scf|^2 =  4.279E-10

      iter #   5 total cpu time :   260.9 secs   av.it.:  10.5
      thresh= 2.069E-06 alpha_mix =  0.700 |ddv_scf|^2 =  2.710E-11

      iter #   6 total cpu time :   262.4 secs   av.it.:  10.2
      thresh= 5.205E-07 alpha_mix =  0.700 |ddv_scf|^2 =  7.207E-14

      iter #   7 total cpu time :   263.8 secs   av.it.:  10.6
      thresh= 2.685E-08 alpha_mix =  0.700 |ddv_scf|^2 =  1.914E-14

      iter #   8 total cpu time :   265.1 secs   av.it.:  10.2
      thresh= 1.384E-08 alpha_mix =  0.700 |ddv_scf|^2 =  3.999E-14

      iter #   9 total cpu time :   266.2 secs   av.it.:   9.4
      thresh= 2.000E-08 alpha_mix =  0.700 |ddv_scf|^2 =  1.265E-16

     End of self-consistent calculation

     Convergence has been achieved 


     Representation #   6 mode #   6

     Self-consistent Calculation

      iter #   1 total cpu time :   267.3 secs   av.it.:   6.2
      thresh= 1.000E-02 alpha_mix =  0.700 |ddv_scf|^2 =  9.555E-07

      iter #   2 total cpu time :   268.9 secs   av.it.:  10.8
      thresh= 9.775E-05 alpha_mix =  0.700 |ddv_scf|^2 =  3.262E-07

      iter #   3 total cpu time :   270.1 secs   av.it.:  10.4
      thresh= 5.712E-05 alpha_mix =  0.700 |ddv_scf|^2 =  7.154E-09

      iter #   4 total cpu time :   271.4 secs   av.it.:  10.3
      thresh= 8.458E-06 alpha_mix =  0.700 |ddv_scf|^2 =  1.852E-10

      iter #   5 total cpu time :   274.6 secs   av.it.:  10.6
      thresh= 1.361E-06 alpha_mix =  0.700 |ddv_scf|^2 =  1.924E-12

      iter #   6 total cpu time :   275.8 secs   av.it.:  10.6
      thresh= 1.387E-07 alpha_mix =  0.700 |ddv_scf|^2 =  1.790E-14

      iter #   7 total cpu time :   277.0 secs   av.it.:  10.7
      thresh= 1.338E-08 alpha_mix =  0.700 |ddv_scf|^2 =  8.310E-16

     End of self-consistent calculation

     Convergence has been achieved 
 
     Number of q in the star =   24
     List of q in the star:
          1   0.666666667  -0.333333333   1.000000000
          2   1.000000000   0.333333333   0.666666667
          3   0.666666667   0.333333333   1.000000000
          4  -0.666666667  -0.333333333  -1.000000000
          5  -1.000000000  -0.333333333  -0.666666667
          6   1.000000000  -0.333333333   0.666666667
          7  -0.666666667   0.333333333  -1.000000000
          8   1.000000000   0.333333333  -0.666666667
          9  -0.333333333   1.000000000   0.666666667
         10   0.333333333   1.000000000  -0.666666667
         11  -0.333333333  -1.000000000  -0.666666667
         12  -0.333333333   0.666666667  -1.000000000
         13   1.000000000   0.666666667  -0.333333333
         14   1.000000000  -0.666666667   0.333333333
         15  -1.000000000  -0.666666667  -0.333333333
         16  -1.000000000   0.666666667   0.333333333
         17   0.333333333  -0.666666667   1.000000000
         18   0.333333333  -1.000000000   0.666666667
         19   0.333333333   0.666666667   1.000000000
         20  -0.333333333  -0.666666667  -1.000000000
         21   0.666666667  -1.000000000   0.333333333
[...]

      iter #   4 total cpu time :   335.3 secs   av.it.:  10.1
      thresh= 2.795E-05 alpha_mix =  0.700 |ddv_scf|^2 =  3.930E-10

      iter #   5 total cpu time :   336.6 secs   av.it.:  10.5
      thresh= 1.982E-06 alpha_mix =  0.700 |ddv_scf|^2 =  9.977E-12

      iter #   6 total cpu time :   338.0 secs   av.it.:  10.6
      thresh= 3.159E-07 alpha_mix =  0.700 |ddv_scf|^2 =  5.885E-14

      iter #   7 total cpu time :   339.2 secs   av.it.:  10.4
      thresh= 2.426E-08 alpha_mix =  0.700 |ddv_scf|^2 =  7.265E-15

      iter #   8 total cpu time :   340.6 secs   av.it.:  10.5
      thresh= 8.523E-09 alpha_mix =  0.700 |ddv_scf|^2 =  2.513E-15

      iter #   9 total cpu time :   341.7 secs   av.it.:  10.0
      thresh= 5.013E-09 alpha_mix =  0.700 |ddv_scf|^2 =  3.467E-16

     End of self-consistent calculation

     Convergence has been achieved 


     Representation #   6 mode #   6

     Self-consistent Calculation

      iter #   1 total cpu time :   342.8 secs   av.it.:   6.3
      thresh= 1.000E-02 alpha_mix =  0.700 |ddv_scf|^2 =  2.529E-06

      iter #   2 total cpu time :   344.0 secs   av.it.:  10.7
      thresh= 1.590E-04 alpha_mix =  0.700 |ddv_scf|^2 =  2.774E-06

      iter #   3 total cpu time :   345.2 secs   av.it.:   9.8
      thresh= 1.666E-04 alpha_mix =  0.700 |ddv_scf|^2 =  6.791E-08

      iter #   4 total cpu time :   346.4 secs   av.it.:  10.0
      thresh= 2.606E-05 alpha_mix =  0.700 |ddv_scf|^2 =  2.217E-10

      iter #   5 total cpu time :   347.6 secs   av.it.:  10.4
      thresh= 1.489E-06 alpha_mix =  0.700 |ddv_scf|^2 =  4.178E-12

      iter #   6 total cpu time :   350.6 secs   av.it.:  10.5
      thresh= 2.044E-07 alpha_mix =  0.700 |ddv_scf|^2 =  1.948E-14

      iter #   7 total cpu time :   351.8 secs   av.it.:  10.5
      thresh= 1.396E-08 alpha_mix =  0.700 |ddv_scf|^2 =  1.117E-15

      iter #   8 total cpu time :   352.9 secs   av.it.:  10.7
      thresh= 3.342E-09 alpha_mix =  0.700 |ddv_scf|^2 =  2.057E-17

     End of self-consistent calculation

     Convergence has been achieved 
 
     Number of q in the star =   24
     List of q in the star:
          1   0.500000000  -0.166666667   0.833333333
          2   0.833333333   0.166666667   0.500000000
          3   0.500000000   0.166666667   0.833333333
          4  -0.500000000  -0.166666667  -0.833333333
          5  -0.500000000  -0.166666667   0.833333333
          6  -0.833333333  -0.166666667  -0.500000000
          7   0.833333333  -0.166666667   0.500000000
          8  -0.500000000   0.166666667  -0.833333333
          9  -0.500000000   0.166666667   0.833333333
         10   0.833333333  -0.166666667  -0.500000000
         11  -0.833333333  -0.166666667   0.500000000
         12   0.500000000   0.166666667  -0.833333333
         13  -0.833333333   0.166666667   0.500000000
         14   0.833333333   0.166666667  -0.500000000
         15  -0.833333333   0.166666667  -0.500000000
         16  -0.166666667   0.500000000  -0.833333333
         17   0.833333333   0.500000000  -0.166666667
         18  -0.833333333  -0.500000000  -0.166666667
         19  -0.833333333   0.500000000   0.166666667
         20   0.166666667  -0.500000000   0.833333333
         21  -0.166666667   0.500000000   0.833333333
         22   0.166666667   0.500000000  -0.833333333
         23  -0.166666667  -0.500000000  -0.833333333
         24  -0.500000000   0.833333333   0.166666667

     Diagonalizing the dynamical matrix

     q = (    0.500000000  -0.166666667   0.833333333 ) 

 **************************************************************************
     freq (    1) =       5.052005 [THz] =     168.516739 [cm-1]
     freq (    2) =       6.066601 [THz] =     202.360032 [cm-1]
     freq (    3) =       9.812895 [THz] =     327.322948 [cm-1]
     freq (    4) =      11.453247 [THz] =     382.039206 [cm-1]
     freq (    5) =      14.041875 [THz] =     468.386518 [cm-1]
     freq (    6) =      14.270918 [THz] =     476.026587 [cm-1]
 **************************************************************************

     Calculation of q =   -0.3333333  -1.0000000   0.0000000
 
     Parallelization info
     --------------------
     sticks:   dense  smooth     PW     G-vecs:    dense   smooth      PW
     Min         125     125     43                 2608     2608     533
     Max         126     126     44                 2611     2611     536
     Sum        1003    1003    349                20875    20875    4279
 
     Using Slab Decomposition
 

     Title: 
     default                                                                    


     bravais-lattice index     =            2
     lattice parameter (alat)  =      10.1899  a.u.
     unit-cell volume          =     264.5151 (a.u.)^3
     number of atoms/cell      =            2
     number of atomic types    =            1
     number of electrons       =         8.00
     number of Kohn-Sham states=            4
     kinetic-energy cutoff     =      70.0000  Ry
     charge density cutoff     =     280.0000  Ry
     Exchange-correlation= PW
                           (   1   4   0   0   0   0   0)

     celldm(1)=  10.189905  celldm(2)=   0.000000  celldm(3)=   0.000000
     celldm(4)=   0.000000  celldm(5)=   0.000000  celldm(6)=   0.000000

     crystal axes: (cart. coord. in units of alat)
               a(1) = (  -0.500000   0.000000   0.500000 )  
               a(2) = (   0.000000   0.500000   0.500000 )  
               a(3) = (  -0.500000   0.500000   0.000000 )  

     reciprocal axes: (cart. coord. in units 2 pi/alat)
               b(1) = ( -1.000000 -1.000000  1.000000 )  
               b(2) = (  1.000000  1.000000  1.000000 )  
               b(3) = ( -1.000000  1.000000 -1.000000 )  


     PseudoPot. # 1 for Si read from file:
     /fastscratch/tsievers/si_ph_benchmark_images//pseudos/Si.nc.UPF
     MD5 check sum: 9e2d726316af3d4752eea8ab0afbb951
     Pseudo is Norm-conserving + core correction, Zval =  4.0
     Generated using ONCVPSP code by D. R. Hamann
     Using radial grid of 1510 points,  6 beta functions with: 
                l(1) =   0
                l(2) =   0
                l(3) =   1
                l(4) =   1
                l(5) =   2
                l(6) =   2

     atomic species   valence    mass     pseudopotential
        Si             4.00    28.08550     Si( 1.00)

     48 Sym. Ops., with inversion, found



   Cartesian axes

     site n.     atom                  positions (alat units)
         1           Si  tau(   1) = (   0.0000000   0.0000000   0.0000000  )
         2           Si  tau(   2) = (  -0.2500000   0.2500000   0.2500000  )

     number of k points=   432

     Number of k-points >= 100: set verbosity='high' to print them.

     Dense  grid:    20875 G-vectors     FFT dimensions: (  40,  40,  40)

     Estimated max dynamical RAM per process >       2.67 MB

     Estimated total dynamical RAM >     128.02 MB

     The potential is recalculated from file :
     /fastscratch/tsievers/QE_TMP_DIR/_ph1/si_ph_bench_nimages_2_n_procs_96_4.save/charge-density

     Starting wfcs are    8 atomic wfcs

     Band Structure Calculation
     Davidson diagonalization with overlap

     ethr =  1.25E-10,  avg # of iterations = 12.8

     total cpu time spent up to now is       19.5 secs

     End of band structure calculation

     Number of k-points >= 100: set verbosity='high' to print the bands.

     highest occupied level (ev):     6.1106

     Writing config to output data dir /fastscratch/tsievers/QE_TMP_DIR/_ph1/si_ph_bench_nimages_2_n_procs_96_4.save/

     default                                                                    

     bravais-lattice index     =            2
     lattice parameter (alat)  =      10.1899  a.u.
     unit-cell volume          =     264.5151 (a.u.)^3
     number of atoms/cell      =            2
     number of atomic types    =            1
     kinetic-energy cut-off    =      70.0000  Ry
     charge density cut-off    =     280.0000  Ry
     convergence threshold     =      1.0E-15
     beta                      =       0.7000
     number of iterations used =            4
     Exchange-correlation= PW
                           (   1   4   0   0   0   0   0)


     celldm(1)=   10.18990  celldm(2)=    0.00000  celldm(3)=    0.00000
     celldm(4)=    0.00000  celldm(5)=    0.00000  celldm(6)=    0.00000

     crystal axes: (cart. coord. in units of alat)
               a(1) = ( -0.5000  0.0000  0.5000 )  
               a(2) = (  0.0000  0.5000  0.5000 )  
               a(3) = ( -0.5000  0.5000  0.0000 )  

     reciprocal axes: (cart. coord. in units 2 pi/alat)
               b(1) = ( -1.0000 -1.0000  1.0000 )  
               b(2) = (  1.0000  1.0000  1.0000 )  
               b(3) = ( -1.0000  1.0000 -1.0000 )  


     Atoms inside the unit cell: 

     Cartesian axes

     site n.  atom      mass           positions (alat units)
        1     Si  28.0855   tau(    1) = (    0.00000    0.00000    0.00000  )
        2     Si  28.0855   tau(    2) = (   -0.25000    0.25000    0.25000  )

     Computing dynamical matrix for 
                    q = (  -0.3333333  -1.0000000   0.0000000 )
 
      4 Sym.Ops. (no q -> -q+G )


     G cutoff =  736.4420  (   2611 G-vectors)     FFT grid: ( 40, 40, 40)
     number of k points=   432

     PseudoPot. # 1 for Si read from file:
     /fastscratch/tsievers/si_ph_benchmark_images//pseudos/Si.nc.UPF
     MD5 check sum: 9e2d726316af3d4752eea8ab0afbb951
     Pseudo is Norm-conserving + core correction, Zval =  4.0
     Generated using ONCVPSP code by D. R. Hamann
     Using radial grid of 1510 points,  6 beta functions with: 
                l(1) =   0
                l(2) =   0
                l(3) =   1
                l(4) =   1
                l(5) =   2
                l(6) =   2


     Atomic displacements:
     There are    3 irreducible representations

     Representation     1      2 modes -  To be done

     Representation     2      2 modes -  To be done

     Representation     3      2 modes -  To be done



     Alpha used in Ewald sum =   2.8000
     PHONON       :   5m 3.04s CPU   5m56.67s WALL



     Representation #   1 modes #   1   2

     Self-consistent Calculation

      iter #   1 total cpu time :   357.6 secs   av.it.:   6.2
      thresh= 1.000E-02 alpha_mix =  0.700 |ddv_scf|^2 =  5.042E-07

      iter #   2 total cpu time :   359.3 secs   av.it.:  11.4
      thresh= 7.101E-05 alpha_mix =  0.700 |ddv_scf|^2 =  5.623E-07

      iter #   3 total cpu time :   360.7 secs   av.it.:  10.8
      thresh= 7.498E-05 alpha_mix =  0.700 |ddv_scf|^2 =  4.579E-09

      iter #   4 total cpu time :   362.3 secs   av.it.:  10.9
      thresh= 6.767E-06 alpha_mix =  0.700 |ddv_scf|^2 =  9.288E-11

      iter #   5 total cpu time :   365.7 secs   av.it.:  11.1
      thresh= 9.637E-07 alpha_mix =  0.700 |ddv_scf|^2 =  1.073E-12

      iter #   6 total cpu time :   367.4 secs   av.it.:  11.3
      thresh= 1.036E-07 alpha_mix =  0.700 |ddv_scf|^2 =  2.149E-14

      iter #   7 total cpu time :   368.8 secs   av.it.:  11.2
      thresh= 1.466E-08 alpha_mix =  0.700 |ddv_scf|^2 =  1.128E-15

      iter #   8 total cpu time :   370.0 secs   av.it.:  11.2
      thresh= 3.358E-09 alpha_mix =  0.700 |ddv_scf|^2 =  4.109E-17

     End of self-consistent calculation

     Convergence has been achieved 


     Representation #   2 modes #   3   4

     Self-consistent Calculation

      iter #   1 total cpu time :   371.3 secs   av.it.:   6.4
      thresh= 1.000E-02 alpha_mix =  0.700 |ddv_scf|^2 =  9.142E-07

      iter #   2 total cpu time :   372.7 secs   av.it.:  11.4
      thresh= 9.562E-05 alpha_mix =  0.700 |ddv_scf|^2 =  1.025E-06

      iter #   3 total cpu time :   374.1 secs   av.it.:  10.8
      thresh= 1.013E-04 alpha_mix =  0.700 |ddv_scf|^2 =  8.860E-09

      iter #   4 total cpu time :   375.6 secs   av.it.:  10.9
      thresh= 9.413E-06 alpha_mix =  0.700 |ddv_scf|^2 =  9.242E-11

      iter #   5 total cpu time :   377.1 secs   av.it.:  11.2
      thresh= 9.614E-07 alpha_mix =  0.700 |ddv_scf|^2 =  2.106E-12

      iter #   6 total cpu time :   378.8 secs   av.it.:  11.3
      thresh= 1.451E-07 alpha_mix =  0.700 |ddv_scf|^2 =  1.672E-14

      iter #   7 total cpu time :   380.3 secs   av.it.:  11.2
      thresh= 1.293E-08 alpha_mix =  0.700 |ddv_scf|^2 =  1.065E-15

      iter #   8 total cpu time :   381.7 secs   av.it.:  11.3
      thresh= 3.264E-09 alpha_mix =  0.700 |ddv_scf|^2 =  4.392E-17

     End of self-consistent calculation

     Convergence has been achieved 


     Representation #   3 modes #   5   6

     Self-consistent Calculation

      iter #   1 total cpu time :   383.4 secs   av.it.:   6.5
      thresh= 1.000E-02 alpha_mix =  0.700 |ddv_scf|^2 =  1.211E-06

      iter #   2 total cpu time :   385.0 secs   av.it.:  11.3
      thresh= 1.100E-04 alpha_mix =  0.700 |ddv_scf|^2 =  1.329E-06

      iter #   3 total cpu time :   386.5 secs   av.it.:  10.7
      thresh= 1.153E-04 alpha_mix =  0.700 |ddv_scf|^2 =  1.072E-08

      iter #   4 total cpu time :   388.0 secs   av.it.:  10.8
      thresh= 1.036E-05 alpha_mix =  0.700 |ddv_scf|^2 =  7.284E-11

      iter #   5 total cpu time :   390.4 secs   av.it.:  11.1
      thresh= 8.534E-07 alpha_mix =  0.700 |ddv_scf|^2 =  6.916E-13

      iter #   6 total cpu time :   391.8 secs   av.it.:  11.2
      thresh= 8.316E-08 alpha_mix =  0.700 |ddv_scf|^2 =  1.216E-14

      iter #   7 total cpu time :   393.0 secs   av.it.:  11.1
      thresh= 1.103E-08 alpha_mix =  0.700 |ddv_scf|^2 =  7.302E-16

     End of self-consistent calculation

     Convergence has been achieved 
 
     Number of q in the star =   12
     List of q in the star:
          1  -0.333333333  -1.000000000   0.000000000
          2   0.333333333  -1.000000000   0.000000000
          3   0.000000000  -1.000000000   0.333333333
          4   0.000000000  -1.000000000  -0.333333333
          5  -1.000000000   0.000000000  -0.333333333
          6   1.000000000   0.000000000   0.333333333
          7  -1.000000000  -0.333333333   0.000000000
          8   0.000000000  -0.333333333  -1.000000000
          9   0.000000000   0.333333333   1.000000000
         10   1.000000000   0.333333333   0.000000000
         11  -0.333333333   0.000000000   1.000000000
         12   0.333333333   0.000000000   1.000000000

     Diagonalizing the dynamical matrix

     q = (   -0.333333333  -1.000000000   0.000000000 ) 

 **************************************************************************
     freq (    1) =       5.494565 [THz] =     183.278968 [cm-1]
     freq (    2) =       5.494565 [THz] =     183.278968 [cm-1]
     freq (    3) =      10.966345 [THz] =     365.797908 [cm-1]
     freq (    4) =      10.966345 [THz] =     365.797908 [cm-1]
     freq (    5) =      14.002139 [THz] =     467.061072 [cm-1]
     freq (    6) =      14.002139 [THz] =     467.061072 [cm-1]
 **************************************************************************
 
     init_run     :      0.19s CPU      0.21s WALL (       8 calls)
     electrons    :     12.81s CPU     13.91s WALL (       8 calls)

     Called by init_run:
     wfcinit      :      0.00s CPU      0.01s WALL (       8 calls)
     potinit      :      0.01s CPU      0.02s WALL (       8 calls)
     hinit0       :      0.08s CPU      0.08s WALL (       8 calls)

     Called by electrons:
     c_bands      :     12.81s CPU     13.91s WALL (       8 calls)
     v_of_rho     :      0.01s CPU      0.01s WALL (       9 calls)

     Called by c_bands:
     init_us_2    :      2.19s CPU      2.30s WALL (   20195 calls)
     init_us_2:cp :      2.14s CPU      2.25s WALL (   20195 calls)
     cegterg      :      9.27s CPU      9.60s WALL (     736 calls)

     Called by *egterg:
     cdiaghg      :      0.62s CPU      0.64s WALL (   10369 calls)
     h_psi        :    151.55s CPU    157.95s WALL (  204783 calls)
     g_psi        :      0.08s CPU      0.09s WALL (    9633 calls)

     Called by h_psi:
     h_psi:calbec :     10.88s CPU     11.33s WALL (  204783 calls)
     vloc_psi     :    130.73s CPU    136.26s WALL (  204783 calls)
     add_vuspsi   :      8.09s CPU      8.53s WALL (  204783 calls)

     General routines
     calbec       :     19.82s CPU     20.79s WALL (  410115 calls)
     fft          :      0.42s CPU      0.45s WALL (    1674 calls)
     ffts         :      0.31s CPU      0.33s WALL (    2268 calls)
     fftw         :    141.10s CPU    147.26s WALL ( 1724384 calls)
     davcio       :      1.24s CPU      2.44s WALL (   86769 calls)
 
     Parallel routines
 
     PHONON       :   5m36.47s CPU   6m37.35s WALL

     INITIALIZATION: 
     phq_setup    :      0.03s CPU      2.27s WALL (       8 calls)
     phq_init     :      1.25s CPU      1.83s WALL (       8 calls)
 
     phq_init     :      1.25s CPU      1.83s WALL (       8 calls)
     set_drhoc    :      0.51s CPU      0.51s WALL (      22 calls)
     init_vloc    :      0.02s CPU      0.02s WALL (       9 calls)
     init_us_1    :      0.03s CPU      0.03s WALL (       9 calls)
     init_us_2    :      2.19s CPU      2.30s WALL (   20195 calls)
 
     DYNAMICAL MATRIX:
     dynmat0      :      0.72s CPU      1.29s WALL (       7 calls)
     phqscf       :    313.62s CPU    361.65s WALL (       8 calls)
     dynmatrix    :     26.89s CPU     32.40s WALL (       7 calls)
 
     phqscf       :    313.62s CPU    361.65s WALL (       8 calls)
     solve_linter :    312.71s CPU    358.35s WALL (      36 calls)
     drhodv       :      0.88s CPU      0.91s WALL (      36 calls)
 
     dynmat0      :      0.72s CPU      1.29s WALL (       7 calls)
     dynmat_us    :      0.36s CPU      0.36s WALL (       7 calls)
     d2ionq       :      0.01s CPU      0.01s WALL (       7 calls)
     dynmatcc     :      0.35s CPU      0.35s WALL (       7 calls)
 
     dynmat_us    :      0.36s CPU      0.36s WALL (       7 calls)
 
     phqscf       :    313.62s CPU    361.65s WALL (       8 calls)
     solve_linter :    312.71s CPU    358.35s WALL (      36 calls)
 
     solve_linter :    312.71s CPU    358.35s WALL (      36 calls)
     dvqpsi_us    :      2.38s CPU      2.52s WALL (    2052 calls)
     sth_kernel   :    222.61s CPU    232.05s WALL (     276 calls)
     apply_dpot_b :     11.12s CPU     11.68s WALL (   14250 calls)
     ortho        :      0.56s CPU      0.59s WALL (   16302 calls)
     cgsolve      :    165.44s CPU    172.50s WALL (   16302 calls)
     incdrhoscf   :     12.95s CPU     13.54s WALL (   16302 calls)
     dv_of_drho   :      0.16s CPU      0.17s WALL (     329 calls)
     mix_pot      :      1.65s CPU     17.32s WALL (     276 calls)
     psymdvscf    :      3.03s CPU      3.14s WALL (     276 calls)
 
     dvqpsi_us    :      2.38s CPU      2.52s WALL (    2052 calls)
     dvqpsi_us_on :      0.52s CPU      0.55s WALL (    2052 calls)
 
     cgsolve      :    165.44s CPU    172.50s WALL (   16302 calls)
     ch_psi       :    160.99s CPU    167.79s WALL (  193678 calls)
 
     ch_psi       :    160.99s CPU    167.79s WALL (  193678 calls)
     h_psi        :    151.55s CPU    157.95s WALL (  204783 calls)
     last         :     15.83s CPU     16.52s WALL (  193678 calls)
 
     h_psi        :    151.55s CPU    157.95s WALL (  204783 calls)
     add_vuspsi   :      8.09s CPU      8.53s WALL (  204783 calls)
 
     incdrhoscf   :     12.95s CPU     13.54s WALL (   16302 calls)
 
 
      General routines
     calbec       :     19.82s CPU     20.79s WALL (  410115 calls)
     fft          :      0.42s CPU      0.45s WALL (    1674 calls)
     ffts         :      0.31s CPU      0.33s WALL (    2268 calls)
     fftw         :    141.10s CPU    147.26s WALL ( 1724384 calls)
     davcio       :      1.24s CPU      2.44s WALL (   86769 calls)
     write_rec    :      0.23s CPU     22.37s WALL (     312 calls)
 
     PHONON       :   5m36.47s CPU   6m37.35s WALL

