Module for intel-oneAPI 2021.4 loaded.
 
:: initializing oneAPI environment ...
   3065523: BASH_VERSION = 4.4.20(1)-release
:: advisor -- latest
:: ccl -- latest
:: clck -- latest
:: compiler -- latest
:: dal -- latest
:: debugger -- latest
:: dev-utilities -- latest
:: dnnl -- latest
:: dpcpp-ct -- latest
:: dpl -- latest
:: inspector -- latest
:: intelpython -- latest
:: ipp -- latest
:: ippcp -- latest
:: ipp -- latest
:: itac -- latest
:: LPOT -- latest
:: mkl -- latest
:: modelzoo -- latest
:: mpi -- latest
:: pytorch -- latest
:: tbb -- latest
:: tensorflow -- latest
:: vpl -- latest
:: vtune -- latest
:: oneAPI environment initialized ::
 

     Program PWSCF v.7.0 starts on 26Jun2022 at 21:50:10 

     This program is part of the open-source Quantum ESPRESSO suite
     for quantum simulation of materials; please cite
         "P. Giannozzi et al., J. Phys.:Condens. Matter 21 395502 (2009);
         "P. Giannozzi et al., J. Phys.:Condens. Matter 29 465901 (2017);
         "P. Giannozzi et al., J. Chem. Phys. 152 154105 (2020);
          URL http://www.quantum-espresso.org", 
     in publications or presentations arising from this work. More details at
     http://www.quantum-espresso.org/quote

     Parallel version (MPI), running on    36 processors

     MPI processes distributed on     2 nodes
     R & G space division:  proc/nbgrp/npool/nimage =      36
     3811 MiB available memory on the printing compute node when the environment starts
 
     Reading input from in_files/silicon_ph_bench_nd_1_n_procs_36_4.scf

     Current dimensions of program PWSCF are:
     Max number of different atomic species (ntypx) = 10
     Max number of k-points (npk) =  40000
     Max angular momentum in pseudopotentials (lmaxx) =  4

     Subspace diagonalization in iterative solution of the eigenvalue problem:
     a serial algorithm will be used

 
     Parallelization info
     --------------------
     sticks:   dense  smooth     PW     G-vecs:    dense   smooth      PW
     Min          27      27      8                  578      578      95
     Max          28      28      9                  581      581      99
     Sum        1003    1003    301                20875    20875    3479
 
     Using Slab Decomposition
 


     bravais-lattice index     =            2
     lattice parameter (alat)  =      10.1899  a.u.
     unit-cell volume          =     264.5151 (a.u.)^3
     number of atoms/cell      =            2
     number of atomic types    =            1
     number of electrons       =         8.00
     number of Kohn-Sham states=            4
     kinetic-energy cutoff     =      70.0000  Ry
     charge density cutoff     =     280.0000  Ry
     scf convergence threshold =      1.0E-10
     mixing beta               =       0.7000
     number of iterations used =            8  plain     mixing
     Exchange-correlation= SLA  PW   NOGX NOGC
                           (   1   4   0   0   0   0   0)

     celldm(1)=  10.189905  celldm(2)=   0.000000  celldm(3)=   0.000000
     celldm(4)=   0.000000  celldm(5)=   0.000000  celldm(6)=   0.000000

     crystal axes: (cart. coord. in units of alat)
               a(1) = (  -0.500000   0.000000   0.500000 )  
               a(2) = (   0.000000   0.500000   0.500000 )  
               a(3) = (  -0.500000   0.500000   0.000000 )  

     reciprocal axes: (cart. coord. in units 2 pi/alat)
               b(1) = ( -1.000000 -1.000000  1.000000 )  
               b(2) = (  1.000000  1.000000  1.000000 )  
               b(3) = ( -1.000000  1.000000 -1.000000 )  


     PseudoPot. # 1 for Si read from file:
     ./pseudos/Si.nc.UPF
     MD5 check sum: 9e2d726316af3d4752eea8ab0afbb951
     Pseudo is Norm-conserving + core correction, Zval =  4.0
     Generated using ONCVPSP code by D. R. Hamann
     Using radial grid of 1510 points,  6 beta functions with: 
                l(1) =   0
                l(2) =   0
                l(3) =   1
                l(4) =   1
                l(5) =   2
                l(6) =   2

     atomic species   valence    mass     pseudopotential
        Si             4.00    28.08550     Si( 1.00)

     48 Sym. Ops., with inversion, found (24 have fractional translation)



   Cartesian axes

     site n.     atom                  positions (alat units)
         1           Si  tau(   1) = (   0.0000000   0.0000000   0.0000000  )
         2           Si  tau(   2) = (  -0.2500000   0.2500000   0.2500000  )

     number of k points=    28
                       cart. coord. in units 2pi/alat
        k(    1) = (  -0.0833333   0.0833333   0.0833333), wk =   0.0185185
        k(    2) = (  -0.2500000   0.2500000  -0.0833333), wk =   0.0555556
        k(    3) = (  -0.4166667   0.4166667  -0.2500000), wk =   0.0555556
        k(    4) = (   0.4166667  -0.4166667   0.5833333), wk =   0.0555556
        k(    5) = (   0.2500000  -0.2500000   0.4166667), wk =   0.0555556
        k(    6) = (   0.0833333  -0.0833333   0.2500000), wk =   0.0555556
        k(    7) = (  -0.0833333   0.4166667   0.0833333), wk =   0.0555556
        k(    8) = (  -0.2500000   0.5833333  -0.0833333), wk =   0.1111111
        k(    9) = (   0.5833333  -0.2500000   0.7500000), wk =   0.1111111
        k(   10) = (   0.4166667  -0.0833333   0.5833333), wk =   0.1111111
        k(   11) = (   0.2500000   0.0833333   0.4166667), wk =   0.1111111
        k(   12) = (  -0.0833333   0.7500000   0.0833333), wk =   0.0555556
        k(   13) = (   0.7500000  -0.0833333   0.9166667), wk =   0.1111111
        k(   14) = (   0.5833333   0.0833333   0.7500000), wk =   0.1111111
        k(   15) = (   0.4166667   0.2500000   0.5833333), wk =   0.1111111
        k(   16) = (  -0.0833333  -0.9166667   0.0833333), wk =   0.0555556
        k(   17) = (  -0.2500000  -0.7500000  -0.0833333), wk =   0.1111111
        k(   18) = (  -0.0833333  -0.5833333   0.0833333), wk =   0.0555556
        k(   19) = (  -0.2500000   0.2500000   0.2500000), wk =   0.0185185
        k(   20) = (  -0.4166667   0.4166667   0.0833333), wk =   0.0555556
        k(   21) = (   0.4166667  -0.4166667   0.9166667), wk =   0.0555556
        k(   22) = (   0.2500000  -0.2500000   0.7500000), wk =   0.0555556
        k(   23) = (  -0.2500000   0.5833333   0.2500000), wk =   0.0555556
        k(   24) = (   0.5833333  -0.2500000   1.0833333), wk =   0.1111111
        k(   25) = (   0.4166667  -0.0833333   0.9166667), wk =   0.1111111
        k(   26) = (  -0.2500000  -1.0833333   0.2500000), wk =   0.0555556
        k(   27) = (  -0.4166667   0.4166667   0.4166667), wk =   0.0185185
        k(   28) = (   0.4166667  -0.4166667   1.2500000), wk =   0.0555556

     Dense  grid:    20875 G-vectors     FFT dimensions: (  40,  40,  40)

     Estimated max dynamical RAM per process >       1.99 MB

     Estimated total dynamical RAM >      71.80 MB

     Initial potential from superposition of free atoms

     starting charge       7.9989, renormalised to       8.0000
     Starting wfcs are    8 randomized atomic wfcs

     total cpu time spent up to now is       15.5 secs

     Self-consistent Calculation

     iteration #  1     ecut=    70.00 Ry     beta= 0.70
     Davidson diagonalization with overlap
     ethr =  1.00E-02,  avg # of iterations =  2.0

     Threshold (ethr) on eigenvalues was too large:
     Diagonalizing with lowered threshold

     Davidson diagonalization with overlap
     ethr =  6.12E-04,  avg # of iterations =  2.0

     total cpu time spent up to now is       16.1 secs

     total energy              =     -17.04760996 Ry
     estimated scf accuracy    <       0.05798693 Ry

     iteration #  2     ecut=    70.00 Ry     beta= 0.70
     Davidson diagonalization with overlap
     ethr =  7.25E-04,  avg # of iterations =  1.0

     total cpu time spent up to now is       16.3 secs

     total energy              =     -17.04994518 Ry
     estimated scf accuracy    <       0.00249632 Ry

     iteration #  3     ecut=    70.00 Ry     beta= 0.70
     Davidson diagonalization with overlap
     ethr =  3.12E-05,  avg # of iterations =  3.1

     total cpu time spent up to now is       16.6 secs

     total energy              =     -17.05082797 Ry
     estimated scf accuracy    <       0.00009743 Ry

     iteration #  4     ecut=    70.00 Ry     beta= 0.70
     Davidson diagonalization with overlap
     ethr =  1.22E-06,  avg # of iterations =  4.2

     total cpu time spent up to now is       17.0 secs

     total energy              =     -17.05089793 Ry
     estimated scf accuracy    <       0.00000329 Ry

     iteration #  5     ecut=    70.00 Ry     beta= 0.70
     Davidson diagonalization with overlap
     ethr =  4.11E-08,  avg # of iterations =  4.4

     total cpu time spent up to now is       17.3 secs

     total energy              =     -17.05090098 Ry
     estimated scf accuracy    <       0.00000017 Ry

     iteration #  6     ecut=    70.00 Ry     beta= 0.70
     Davidson diagonalization with overlap
     ethr =  2.10E-09,  avg # of iterations =  3.7

     total cpu time spent up to now is       17.7 secs

     total energy              =     -17.05090106 Ry
     estimated scf accuracy    <       0.00000002 Ry

     iteration #  7     ecut=    70.00 Ry     beta= 0.70
     Davidson diagonalization with overlap
     ethr =  2.66E-10,  avg # of iterations =  2.5

     total cpu time spent up to now is       18.0 secs

     End of self-consistent calculation

          k =-0.0833 0.0833 0.0833 (  2667 PWs)   bands (ev):

    -5.7561   5.3866   6.1106   6.1106

          k =-0.2500 0.2500-0.0833 (  2621 PWs)   bands (ev):

    -5.2692   3.2787   4.8359   5.9020

          k =-0.4167 0.4167-0.2500 (  2618 PWs)   bands (ev):

    -4.1491   0.4558   4.3704   5.2525

          k = 0.4167-0.4167 0.5833 (  2604 PWs)   bands (ev):

    -3.4238  -0.7235   4.4440   4.8612

          k = 0.2500-0.2500 0.4167 (  2618 PWs)   bands (ev):

    -4.5725   1.3222   4.9163   4.9543

          k = 0.0833-0.0833 0.2500 (  2643 PWs)   bands (ev):

    -5.5104   4.3092   5.4447   5.6431

          k =-0.0833 0.4167 0.0833 (  2627 PWs)   bands (ev):

    -5.0231   3.1094   4.6844   4.6977

          k =-0.2500 0.5833-0.0833 (  2613 PWs)   bands (ev):

    -4.0918   1.2428   3.3199   4.3008

          k = 0.5833-0.2500 0.7500 (  2616 PWs)   bands (ev):

    -2.9383  -0.5645   2.7090   4.0652

          k = 0.4167-0.0833 0.5833 (  2617 PWs)   bands (ev):

    -3.6856   0.5301   2.6549   4.5685

          k = 0.2500 0.0833 0.4167 (  2624 PWs)   bands (ev):

    -4.7922   2.2460   4.0374   5.2604

          k =-0.0833 0.7500 0.0833 (  2617 PWs)   bands (ev):

    -3.3664   0.4197   3.2862   3.6484

          k = 0.7500-0.0833 0.9167 (  2608 PWs)   bands (ev):

    -2.1400  -0.9430   2.4039   3.2177

          k = 0.5833 0.0833 0.7500 (  2608 PWs)   bands (ev):

    -2.5099  -0.6178   1.9049   3.7798

          k = 0.4167 0.2500 0.5833 (  2622 PWs)   bands (ev):

    -3.5664  -0.1967   3.6417   4.6731

          k =-0.0833-0.9167 0.0833 (  2604 PWs)   bands (ev):

    -2.2384  -0.9535   3.0091   3.4291

          k =-0.2500-0.7500-0.0833 (  2615 PWs)   bands (ev):

    -3.1914   0.1893   2.7413   3.5675

          k =-0.0833-0.5833 0.0833 (  2620 PWs)   bands (ev):

    -4.3033   1.8032   3.8480   4.0788

          k =-0.2500 0.2500 0.2500 (  2632 PWs)   bands (ev):

    -5.0343   2.2731   5.4857   5.4857

          k =-0.4167 0.4167 0.0833 (  2620 PWs)   bands (ev):

    -4.3392   1.3431   3.2814   5.3166

          k = 0.4167-0.4167 0.9167 (  2613 PWs)   bands (ev):

    -3.1274  -0.1140   2.1362   4.5076

          k = 0.2500-0.2500 0.7500 (  2618 PWs)   bands (ev):

    -3.0761  -0.1941   2.6356   4.0115

          k =-0.2500 0.5833 0.2500 (  2613 PWs)   bands (ev):

    -3.9042   0.5133   3.7737   4.3933

          k = 0.5833-0.2500 1.0833 (  2619 PWs)   bands (ev):

    -2.8764  -0.2148   2.2381   3.5572

          k = 0.4167-0.0833 0.9167 (  2613 PWs)   bands (ev):

    -2.0244  -0.9506   2.0592   2.8637

          k =-0.2500-1.0833 0.2500 (  2605 PWs)   bands (ev):

    -2.2385  -0.8648   1.9290   3.8127

          k =-0.4167 0.4167 0.4167 (  2602 PWs)   bands (ev):

    -3.8074  -0.3119   5.0941   5.0941

          k = 0.4167-0.4167 1.2500 (  2605 PWs)   bands (ev):

    -3.1840  -0.6106   3.2018   4.6388

     highest occupied level (ev):     6.1106

!    total energy              =     -17.05090107 Ry
     estimated scf accuracy    <          9.1E-11 Ry

     The total energy is the sum of the following terms:
     one-electron contribution =       5.01080475 Ry
     hartree contribution      =       1.07710683 Ry
     xc contribution           =      -6.22231136 Ry
     ewald contribution        =     -16.91650128 Ry

     convergence has been achieved in   7 iterations

     Forces acting on atoms (cartesian axes, Ry/au):

     atom    1 type  1   force =     0.00000000    0.00000000    0.00000000
     atom    2 type  1   force =    -0.00000000   -0.00000000   -0.00000000

     Total force =     0.000000     Total SCF correction =     0.000000

     Writing all to output data dir /fastscratch/tsievers/QE_TMP_DIR/silicon_ph_bench_nd_1_n_procs_36_4.save/
 
     init_run     :      0.17s CPU      0.25s WALL (       1 calls)
     electrons    :      2.37s CPU      2.44s WALL (       1 calls)
     forces       :      0.01s CPU      0.01s WALL (       1 calls)

     Called by init_run:
     wfcinit      :      0.15s CPU      0.20s WALL (       1 calls)
     potinit      :      0.00s CPU      0.00s WALL (       1 calls)
     hinit0       :      0.01s CPU      0.04s WALL (       1 calls)

     Called by electrons:
     c_bands      :      2.06s CPU      2.11s WALL (       8 calls)
     sum_band     :      0.31s CPU      0.31s WALL (       8 calls)
     v_of_rho     :      0.01s CPU      0.01s WALL (       8 calls)
     mix_rho      :      0.00s CPU      0.00s WALL (       8 calls)

     Called by c_bands:
     init_us_2    :      0.02s CPU      0.02s WALL (     504 calls)
     init_us_2:cp :      0.01s CPU      0.02s WALL (     504 calls)
     cegterg      :      1.99s CPU      2.04s WALL (     224 calls)

     Called by *egterg:
     cdiaghg      :      0.04s CPU      0.04s WALL (     837 calls)
     h_psi        :      2.04s CPU      2.08s WALL (     893 calls)
     g_psi        :      0.00s CPU      0.00s WALL (     641 calls)

     Called by h_psi:
     h_psi:calbec :      0.04s CPU      0.04s WALL (     893 calls)
     vloc_psi     :      1.98s CPU      2.02s WALL (     893 calls)
     add_vuspsi   :      0.01s CPU      0.01s WALL (     893 calls)

     General routines
     calbec       :      0.04s CPU      0.04s WALL (    1005 calls)
     fft          :      0.01s CPU      0.04s WALL (      28 calls)
     ffts         :      0.00s CPU      0.00s WALL (       8 calls)
     fftw         :      2.23s CPU      2.27s WALL (    7030 calls)
 
     Parallel routines
 
     PWSCF        :     17.87s CPU     18.36s WALL

 
   This run was terminated on:  21:50:28  26Jun2022            

=------------------------------------------------------------------------------=
   JOB DONE.
=------------------------------------------------------------------------------=

     Program PHONON v.7.0 starts on 26Jun2022 at 21:50:32 

     This program is part of the open-source Quantum ESPRESSO suite
     for quantum simulation of materials; please cite
         "P. Giannozzi et al., J. Phys.:Condens. Matter 21 395502 (2009);
         "P. Giannozzi et al., J. Phys.:Condens. Matter 29 465901 (2017);
         "P. Giannozzi et al., J. Chem. Phys. 152 154105 (2020);
          URL http://www.quantum-espresso.org", 
     in publications or presentations arising from this work. More details at
     http://www.quantum-espresso.org/quote

     Parallel version (MPI), running on    36 processors

     MPI processes distributed on     2 nodes
     R & G space division:  proc/nbgrp/npool/nimage =      36
     3809 MiB available memory on the printing compute node when the environment starts
 
     Reading input from in_files/silicon_ph_bench_nd_1_n_procs_36_4.ph
      Title line not specified: using 'default'.

     Reading xml data from directory:

     /fastscratch/tsievers/QE_TMP_DIR/silicon_ph_bench_nd_1_n_procs_36_4.save/

     IMPORTANT: XC functional enforced from input :
     Exchange-correlation= PW
                           (   1   4   0   0   0   0   0)
     Any further DFT definition will be discarded
     Please, verify this is what you really want

 
     Parallelization info
     --------------------
     sticks:   dense  smooth     PW     G-vecs:    dense   smooth      PW
     Min          27      27      8                  578      578      95
     Max          28      28      9                  581      581      99
     Sum        1003    1003    301                20875    20875    3479
 
     Using Slab Decomposition
 
     Reading collected, re-writing distributed wavefunctions


     Dynamical matrices for ( 6, 6, 6)  uniform grid of q-points
     (  16 q-points):
       N         xq(1)         xq(2)         xq(3) 
       1   0.000000000   0.000000000   0.000000000
       2  -0.166666667   0.166666667  -0.166666667
       3  -0.333333333   0.333333333  -0.333333333
       4   0.500000000  -0.500000000   0.500000000
       5   0.000000000   0.333333333   0.000000000
       6  -0.166666667   0.500000000  -0.166666667
       7   0.666666667  -0.333333333   0.666666667
       8   0.500000000  -0.166666667   0.500000000
       9   0.333333333   0.000000000   0.333333333
      10   0.000000000   0.666666667   0.000000000
      11   0.833333333  -0.166666667   0.833333333
      12   0.666666667  -0.000000000   0.666666667
      13   0.000000000  -1.000000000   0.000000000
      14   0.666666667  -0.333333333   1.000000000
      15   0.500000000  -0.166666667   0.833333333
      16  -0.333333333  -1.000000000   0.000000000

     Calculation of q =    0.0000000   0.0000000   0.0000000

     default                                                                    

     bravais-lattice index     =            2
     lattice parameter (alat)  =      10.1899  a.u.
     unit-cell volume          =     264.5151 (a.u.)^3
     number of atoms/cell      =            2
     number of atomic types    =            1
     kinetic-energy cut-off    =      70.0000  Ry
     charge density cut-off    =     280.0000  Ry
     convergence threshold     =      1.0E-15
     beta                      =       0.7000
     number of iterations used =            4
     Exchange-correlation= PW
                           (   1   4   0   0   0   0   0)


     celldm(1)=   10.18990  celldm(2)=    0.00000  celldm(3)=    0.00000
     celldm(4)=    0.00000  celldm(5)=    0.00000  celldm(6)=    0.00000

     crystal axes: (cart. coord. in units of alat)
               a(1) = ( -0.5000  0.0000  0.5000 )  
               a(2) = (  0.0000  0.5000  0.5000 )  
               a(3) = ( -0.5000  0.5000  0.0000 )  

     reciprocal axes: (cart. coord. in units 2 pi/alat)
               b(1) = ( -1.0000 -1.0000  1.0000 )  
               b(2) = (  1.0000  1.0000  1.0000 )  
               b(3) = ( -1.0000  1.0000 -1.0000 )  


     Atoms inside the unit cell: 

     Cartesian axes

     site n.  atom      mass           positions (alat units)
        1     Si  28.0855   tau(    1) = (    0.00000    0.00000    0.00000  )
        2     Si  28.0855   tau(    2) = (   -0.25000    0.25000    0.25000  )

     Computing dynamical matrix for 
                    q = (   0.0000000   0.0000000   0.0000000 )
 
     49 Sym.Ops. (with q -> -q+G )


     G cutoff =  736.4420  (    581 G-vectors)     FFT grid: ( 40, 40, 40)
     number of k points=    28

     PseudoPot. # 1 for Si read from file:
     ./pseudos/Si.nc.UPF
     MD5 check sum: 9e2d726316af3d4752eea8ab0afbb951
     Pseudo is Norm-conserving + core correction, Zval =  4.0
     Generated using ONCVPSP code by D. R. Hamann
     Using radial grid of 1510 points,  6 beta functions with: 
                l(1) =   0
                l(2) =   0
                l(3) =   1
                l(4) =   1
                l(5) =   2
                l(6) =   2

     Mode symmetry, O_h (m-3m)  point group:


     Electric field:
     Dielectric constant
     Born effective charges in two ways 


     Atomic displacements:
     There are    2 irreducible representations

     Representation     1      3 modes -  To be done

     Representation     2      3 modes -  To be done



     Alpha used in Ewald sum =   2.8000
     PHONON       :      0.30s CPU      0.51s WALL


     Electric Fields Calculation

      iter #   1 total cpu time :     6.9 secs   av.it.:   6.5
      thresh= 1.000E-02 alpha_mix =  0.700 |ddv_scf|^2 =  3.551E-08

      iter #   2 total cpu time :    10.7 secs   av.it.:  12.2
      thresh= 1.884E-05 alpha_mix =  0.700 |ddv_scf|^2 =  1.522E-09

      iter #   3 total cpu time :    14.2 secs   av.it.:  12.1
      thresh= 3.901E-06 alpha_mix =  0.700 |ddv_scf|^2 =  1.715E-11

      iter #   4 total cpu time :    17.6 secs   av.it.:  12.4
      thresh= 4.142E-07 alpha_mix =  0.700 |ddv_scf|^2 =  1.018E-13

      iter #   5 total cpu time :    20.7 secs   av.it.:  11.4
      thresh= 3.190E-08 alpha_mix =  0.700 |ddv_scf|^2 =  3.739E-17

     End of electric fields calculation

          Dielectric constant in cartesian axis 

          (      13.312199356      -0.000000000      -0.000000000 )
          (      -0.000000000      13.312199356       0.000000000 )
          (      -0.000000000      -0.000000000      13.312199356 )

          Effective charges (d Force / dE) in cartesian axis without acoustic sum rule applied (asr)

           atom      1   Si Mean Z*:       -0.00679
      Ex  (       -0.00679       -0.00000       -0.00000 )
      Ey  (       -0.00000       -0.00679        0.00000 )
      Ez  (       -0.00000        0.00000       -0.00679 )
           atom      2   Si Mean Z*:       -0.00679
      Ex  (       -0.00679       -0.00000       -0.00000 )
      Ey  (       -0.00000       -0.00679        0.00000 )
      Ez  (       -0.00000        0.00000       -0.00679 )

          Effective charges Sum: Mean:       -0.01358
             -0.01358       -0.00000       -0.00000
             -0.00000       -0.01358        0.00000
             -0.00000        0.00000       -0.01358

          Effective charges (d Force / dE) in cartesian axis with asr applied: 
           atom      1   Si Mean Z*:       -0.00000
      E*x (       -0.00000        0.00000       -0.00000 )
      E*y (       -0.00000       -0.00000        0.00000 )
      E*z (       -0.00000        0.00000       -0.00000 )
           atom      2   Si Mean Z*:        0.00000
      E*x (        0.00000        0.00000        0.00000 )
      E*y (        0.00000        0.00000        0.00000 )
      E*z (        0.00000        0.00000        0.00000 )


     Representation #   1 modes #   1   2   3

     Self-consistent Calculation

      iter #   1 total cpu time :    23.4 secs   av.it.:   5.8
      thresh= 1.000E-02 alpha_mix =  0.700 |ddv_scf|^2 =  5.119E-09

      iter #   2 total cpu time :    26.8 secs   av.it.:  12.2
      thresh= 7.155E-06 alpha_mix =  0.700 |ddv_scf|^2 =  1.150E-10

      iter #   3 total cpu time :    30.3 secs   av.it.:  12.2
      thresh= 1.073E-06 alpha_mix =  0.700 |ddv_scf|^2 =  4.294E-12

      iter #   4 total cpu time :    33.7 secs   av.it.:  12.1
      thresh= 2.072E-07 alpha_mix =  0.700 |ddv_scf|^2 =  1.391E-14

      iter #   5 total cpu time :    37.1 secs   av.it.:  12.3
      thresh= 1.179E-08 alpha_mix =  0.700 |ddv_scf|^2 =  6.462E-17

     End of self-consistent calculation

     Convergence has been achieved 


     Representation #   2 modes #   4   5   6

     Self-consistent Calculation

      iter #   1 total cpu time :    39.3 secs   av.it.:   6.0
      thresh= 1.000E-02 alpha_mix =  0.700 |ddv_scf|^2 =  3.695E-09

      iter #   2 total cpu time :    42.8 secs   av.it.:  12.4
      thresh= 6.079E-06 alpha_mix =  0.700 |ddv_scf|^2 =  1.329E-10

      iter #   3 total cpu time :    46.2 secs   av.it.:  12.4
      thresh= 1.153E-06 alpha_mix =  0.700 |ddv_scf|^2 =  6.049E-12

      iter #   4 total cpu time :    49.7 secs   av.it.:  12.4
      thresh= 2.459E-07 alpha_mix =  0.700 |ddv_scf|^2 =  1.083E-14

      iter #   5 total cpu time :    53.1 secs   av.it.:  12.5
      thresh= 1.041E-08 alpha_mix =  0.700 |ddv_scf|^2 =  2.889E-17

     End of self-consistent calculation

     Convergence has been achieved 
 
     Number of q in the star =    1
     List of q in the star:
          1   0.000000000   0.000000000   0.000000000

          Dielectric constant in cartesian axis 

          (      13.312199356      -0.000000000      -0.000000000 )
          (      -0.000000000      13.312199356       0.000000000 )
          (      -0.000000000      -0.000000000      13.312199356 )

          Effective charges (d Force / dE) in cartesian axis without acoustic sum rule applied (asr)

           atom      1   Si Mean Z*:       -0.00679
      Ex  (       -0.00679       -0.00000       -0.00000 )
      Ey  (       -0.00000       -0.00679        0.00000 )
      Ez  (       -0.00000        0.00000       -0.00679 )
           atom      2   Si Mean Z*:       -0.00679
      Ex  (       -0.00679       -0.00000       -0.00000 )
      Ey  (       -0.00000       -0.00679        0.00000 )
      Ez  (       -0.00000        0.00000       -0.00679 )

          Effective charges Sum: Mean:       -0.01358
             -0.01358       -0.00000       -0.00000
             -0.00000       -0.01358        0.00000
             -0.00000        0.00000       -0.01358

          Effective charges (d Force / dE) in cartesian axis with asr applied: 
           atom      1   Si Mean Z*:       -0.00000
      E*x (       -0.00000        0.00000       -0.00000 )
      E*y (       -0.00000       -0.00000        0.00000 )
      E*z (       -0.00000        0.00000       -0.00000 )
           atom      2   Si Mean Z*:        0.00000
      E*x (        0.00000        0.00000        0.00000 )
      E*y (        0.00000        0.00000        0.00000 )
      E*z (        0.00000        0.00000        0.00000 )

          Effective charges (d P / du) in cartesian axis 

           atom      1   Si 
      Px  (       -0.00686       -0.00000       -0.00000 )
      Py  (       -0.00000       -0.00686        0.00000 )
      Pz  (       -0.00000        0.00000       -0.00686 )
           atom      2   Si 
      Px  (       -0.00686        0.00000       -0.00000 )
      Py  (        0.00000       -0.00686        0.00000 )
      Pz  (        0.00000        0.00000       -0.00686 )

     Diagonalizing the dynamical matrix

     q = (    0.000000000   0.000000000   0.000000000 ) 

 **************************************************************************
     freq (    1) =      -0.117450 [THz] =      -3.917702 [cm-1]
     freq (    2) =      -0.117450 [THz] =      -3.917702 [cm-1]
     freq (    3) =      -0.117450 [THz] =      -3.917702 [cm-1]
     freq (    4) =      15.412109 [THz] =     514.092610 [cm-1]
     freq (    5) =      15.412109 [THz] =     514.092610 [cm-1]
     freq (    6) =      15.412109 [THz] =     514.092610 [cm-1]
 **************************************************************************

     Mode symmetry, O_h (m-3m)  point group:

     freq (   1-   3) =         -3.9  [cm-1]   --> T_1u G_15  G_4- I  
     freq (   4-   6) =        514.1  [cm-1]   --> T_2g G_25' G_5+ R  

     Calculation of q =   -0.1666667   0.1666667  -0.1666667

     Subspace diagonalization in iterative solution of the eigenvalue problem:
     a serial algorithm will be used

 
     Parallelization info
     --------------------
     sticks:   dense  smooth     PW     G-vecs:    dense   smooth      PW
     Min          27      27      8                  578      578     100
     Max          28      28      9                  581      581     105
     Sum        1003    1003    313                20875    20875    3695
 
     Using Slab Decomposition
 

     Title: 
     default                                                                    


     bravais-lattice index     =            2
     lattice parameter (alat)  =      10.1899  a.u.
     unit-cell volume          =     264.5151 (a.u.)^3
     number of atoms/cell      =            2
     number of atomic types    =            1
     number of electrons       =         8.00
     number of Kohn-Sham states=            4
     kinetic-energy cutoff     =      70.0000  Ry
     charge density cutoff     =     280.0000  Ry
     Exchange-correlation= PW
                           (   1   4   0   0   0   0   0)

     celldm(1)=  10.189905  celldm(2)=   0.000000  celldm(3)=   0.000000
     celldm(4)=   0.000000  celldm(5)=   0.000000  celldm(6)=   0.000000

     crystal axes: (cart. coord. in units of alat)
               a(1) = (  -0.500000   0.000000   0.500000 )  
               a(2) = (   0.000000   0.500000   0.500000 )  
               a(3) = (  -0.500000   0.500000   0.000000 )  

     reciprocal axes: (cart. coord. in units 2 pi/alat)
               b(1) = ( -1.000000 -1.000000  1.000000 )  
               b(2) = (  1.000000  1.000000  1.000000 )  
               b(3) = ( -1.000000  1.000000 -1.000000 )  


     PseudoPot. # 1 for Si read from file:
     ./pseudos/Si.nc.UPF
     MD5 check sum: 9e2d726316af3d4752eea8ab0afbb951
     Pseudo is Norm-conserving + core correction, Zval =  4.0
     Generated using ONCVPSP code by D. R. Hamann
     Using radial grid of 1510 points,  6 beta functions with: 
                l(1) =   0
                l(2) =   0
                l(3) =   1
                l(4) =   1
                l(5) =   2
                l(6) =   2

     atomic species   valence    mass     pseudopotential
        Si             4.00    28.08550     Si( 1.00)

     48 Sym. Ops., with inversion, found



   Cartesian axes

     site n.     atom                  positions (alat units)
         1           Si  tau(   1) = (   0.0000000   0.0000000   0.0000000  )
         2           Si  tau(   2) = (  -0.2500000   0.2500000   0.2500000  )

     number of k points=   364

     Number of k-points >= 100: set verbosity='high' to print them.

     Dense  grid:    20875 G-vectors     FFT dimensions: (  40,  40,  40)

     Estimated max dynamical RAM per process >       1.74 MB

     Estimated total dynamical RAM >      62.59 MB

     The potential is recalculated from file :
     /fastscratch/tsievers/QE_TMP_DIR/_ph0/silicon_ph_bench_nd_1_n_procs_36_4.save/charge-density

     Starting wfcs are    8 atomic wfcs

     Band Structure Calculation
     Davidson diagonalization with overlap

     ethr =  1.25E-10,  avg # of iterations = 12.9

     total cpu time spent up to now is       13.4 secs

     End of band structure calculation

     Number of k-points >= 100: set verbosity='high' to print the bands.

     highest occupied level (ev):     6.1106

     Writing config to output data dir /fastscratch/tsievers/QE_TMP_DIR/_ph0/silicon_ph_bench_nd_1_n_procs_36_4.save/

     default                                                                    

     bravais-lattice index     =            2
     lattice parameter (alat)  =      10.1899  a.u.
     unit-cell volume          =     264.5151 (a.u.)^3
     number of atoms/cell      =            2
     number of atomic types    =            1
     kinetic-energy cut-off    =      70.0000  Ry
     charge density cut-off    =     280.0000  Ry
     convergence threshold     =      1.0E-15
     beta                      =       0.7000
     number of iterations used =            4
     Exchange-correlation= PW
                           (   1   4   0   0   0   0   0)


     celldm(1)=   10.18990  celldm(2)=    0.00000  celldm(3)=    0.00000
     celldm(4)=    0.00000  celldm(5)=    0.00000  celldm(6)=    0.00000

     crystal axes: (cart. coord. in units of alat)
               a(1) = ( -0.5000  0.0000  0.5000 )  
               a(2) = (  0.0000  0.5000  0.5000 )  
               a(3) = ( -0.5000  0.5000  0.0000 )  

     reciprocal axes: (cart. coord. in units 2 pi/alat)
               b(1) = ( -1.0000 -1.0000  1.0000 )  
               b(2) = (  1.0000  1.0000  1.0000 )  
               b(3) = ( -1.0000  1.0000 -1.0000 )  


     Atoms inside the unit cell: 

     Cartesian axes

     site n.  atom      mass           positions (alat units)
        1     Si  28.0855   tau(    1) = (    0.00000    0.00000    0.00000  )
        2     Si  28.0855   tau(    2) = (   -0.25000    0.25000    0.25000  )

     Computing dynamical matrix for 
                    q = (  -0.1666667   0.1666667  -0.1666667 )
 
      6 Sym.Ops. (no q -> -q+G )


     G cutoff =  736.4420  (    581 G-vectors)     FFT grid: ( 40, 40, 40)
     number of k points=   364

     PseudoPot. # 1 for Si read from file:
     ./pseudos/Si.nc.UPF
     MD5 check sum: 9e2d726316af3d4752eea8ab0afbb951
     Pseudo is Norm-conserving + core correction, Zval =  4.0
     Generated using ONCVPSP code by D. R. Hamann
     Using radial grid of 1510 points,  6 beta functions with: 
                l(1) =   0
                l(2) =   0
                l(3) =   1
                l(4) =   1
                l(5) =   2
                l(6) =   2

     Mode symmetry, C_3v (3m)   point group:


     Atomic displacements:
     There are    4 irreducible representations

     Representation     1      1 modes -  To be done

     Representation     2      1 modes -  To be done

     Representation     3      2 modes -  To be done

     Representation     4      2 modes -  To be done



     Alpha used in Ewald sum =   2.8000
     PHONON       :   1m 4.17s CPU   1m 8.24s WALL



     Representation #   1 mode #   1

     Self-consistent Calculation

      iter #   1 total cpu time :    72.4 secs   av.it.:   6.6
      thresh= 1.000E-02 alpha_mix =  0.700 |ddv_scf|^2 =  4.790E-04

      iter #   2 total cpu time :    77.9 secs   av.it.:   9.4
      thresh= 2.189E-03 alpha_mix =  0.700 |ddv_scf|^2 =  1.569E-02

      iter #   3 total cpu time :    82.5 secs   av.it.:   7.6
      thresh= 1.000E-02 alpha_mix =  0.700 |ddv_scf|^2 =  1.275E-07

      iter #   4 total cpu time :    88.0 secs   av.it.:   9.6
      thresh= 3.571E-05 alpha_mix =  0.700 |ddv_scf|^2 =  4.177E-09

      iter #   5 total cpu time :    93.8 secs   av.it.:  10.1
      thresh= 6.463E-06 alpha_mix =  0.700 |ddv_scf|^2 =  1.202E-10

      iter #   6 total cpu time :    99.3 secs   av.it.:   9.6
      thresh= 1.096E-06 alpha_mix =  0.700 |ddv_scf|^2 =  6.550E-11

      iter #   7 total cpu time :   105.0 secs   av.it.:   8.4
      thresh= 8.093E-07 alpha_mix =  0.700 |ddv_scf|^2 =  5.027E-11

      iter #   8 total cpu time :   110.1 secs   av.it.:   8.6
      thresh= 7.090E-07 alpha_mix =  0.700 |ddv_scf|^2 =  2.264E-13

      iter #   9 total cpu time :   115.4 secs   av.it.:   8.9
      thresh= 4.758E-08 alpha_mix =  0.700 |ddv_scf|^2 =  4.800E-15

      iter #  10 total cpu time :   120.7 secs   av.it.:   9.2
      thresh= 6.928E-09 alpha_mix =  0.700 |ddv_scf|^2 =  5.901E-16

     End of self-consistent calculation

     Convergence has been achieved 


     Representation #   2 mode #   2

     Self-consistent Calculation

      iter #   1 total cpu time :   125.3 secs   av.it.:   6.6
      thresh= 1.000E-02 alpha_mix =  0.700 |ddv_scf|^2 =  4.790E-04

      iter #   2 total cpu time :   130.7 secs   av.it.:   9.4
      thresh= 2.189E-03 alpha_mix =  0.700 |ddv_scf|^2 =  1.569E-02

      iter #   3 total cpu time :   136.4 secs   av.it.:   7.6
      thresh= 1.000E-02 alpha_mix =  0.700 |ddv_scf|^2 =  1.275E-07

      iter #   4 total cpu time :   142.1 secs   av.it.:   9.6
      thresh= 3.571E-05 alpha_mix =  0.700 |ddv_scf|^2 =  4.177E-09

      iter #   5 total cpu time :   148.3 secs   av.it.:  10.1
      thresh= 6.463E-06 alpha_mix =  0.700 |ddv_scf|^2 =  1.202E-10

      iter #   6 total cpu time :   153.8 secs   av.it.:   9.6
      thresh= 1.096E-06 alpha_mix =  0.700 |ddv_scf|^2 =  6.550E-11

      iter #   7 total cpu time :   159.2 secs   av.it.:   8.4
      thresh= 8.093E-07 alpha_mix =  0.700 |ddv_scf|^2 =  5.027E-11

      iter #   8 total cpu time :   164.5 secs   av.it.:   8.6
      thresh= 7.090E-07 alpha_mix =  0.700 |ddv_scf|^2 =  2.264E-13

      iter #   9 total cpu time :   170.0 secs   av.it.:   8.9
      thresh= 4.758E-08 alpha_mix =  0.700 |ddv_scf|^2 =  4.800E-15

      iter #  10 total cpu time :   175.3 secs   av.it.:   9.2
      thresh= 6.928E-09 alpha_mix =  0.700 |ddv_scf|^2 =  5.902E-16

     End of self-consistent calculation

     Convergence has been achieved 


     Representation #   3 modes #   3   4

     Self-consistent Calculation

      iter #   1 total cpu time :   183.7 secs   av.it.:   6.1
      thresh= 1.000E-02 alpha_mix =  0.700 |ddv_scf|^2 =  1.249E-08

      iter #   2 total cpu time :   197.9 secs   av.it.:  12.0
      thresh= 1.118E-05 alpha_mix =  0.700 |ddv_scf|^2 =  5.560E-10

      iter #   3 total cpu time :   210.9 secs   av.it.:  11.9
      thresh= 2.358E-06 alpha_mix =  0.700 |ddv_scf|^2 =  1.452E-11

      iter #   4 total cpu time :   224.1 secs   av.it.:  12.0
      thresh= 3.810E-07 alpha_mix =  0.700 |ddv_scf|^2 =  1.675E-13

      iter #   5 total cpu time :   238.0 secs   av.it.:  12.0
      thresh= 4.092E-08 alpha_mix =  0.700 |ddv_scf|^2 =  3.555E-15

      iter #   6 total cpu time :   251.5 secs   av.it.:  12.2
      thresh= 5.962E-09 alpha_mix =  0.700 |ddv_scf|^2 =  1.613E-17

     End of self-consistent calculation

     Convergence has been achieved 


     Representation #   4 modes #   5   6

     Self-consistent Calculation

      iter #   1 total cpu time :   259.9 secs   av.it.:   6.0
      thresh= 1.000E-02 alpha_mix =  0.700 |ddv_scf|^2 =  1.250E-08

      iter #   2 total cpu time :   273.9 secs   av.it.:  12.0
      thresh= 1.118E-05 alpha_mix =  0.700 |ddv_scf|^2 =  5.562E-10

      iter #   3 total cpu time :   287.0 secs   av.it.:  11.9
      thresh= 2.358E-06 alpha_mix =  0.700 |ddv_scf|^2 =  1.452E-11

      iter #   4 total cpu time :   300.9 secs   av.it.:  12.0
      thresh= 3.810E-07 alpha_mix =  0.700 |ddv_scf|^2 =  1.675E-13

      iter #   5 total cpu time :   314.0 secs   av.it.:  11.9
      thresh= 4.093E-08 alpha_mix =  0.700 |ddv_scf|^2 =  3.559E-15

      iter #   6 total cpu time :   327.6 secs   av.it.:  12.2
      thresh= 5.966E-09 alpha_mix =  0.700 |ddv_scf|^2 =  1.613E-17

     End of self-consistent calculation

     Convergence has been achieved 
 
     Number of q in the star =    8
     List of q in the star:
          1  -0.166666667   0.166666667  -0.166666667
          2   0.166666667   0.166666667   0.166666667
          3  -0.166666667  -0.166666667  -0.166666667
          4   0.166666667  -0.166666667   0.166666667
          5   0.166666667  -0.166666667  -0.166666667
          6   0.166666667   0.166666667  -0.166666667
          7  -0.166666667  -0.166666667   0.166666667
          8  -0.166666667   0.166666667   0.166666667

     Diagonalizing the dynamical matrix

     q = (   -0.166666667   0.166666667  -0.166666667 ) 

 **************************************************************************
     freq (    1) =       2.202768 [THz] =      73.476421 [cm-1]
     freq (    2) =       2.202768 [THz] =      73.476421 [cm-1]
     freq (    3) =       4.748503 [THz] =     158.393026 [cm-1]
     freq (    4) =      15.023995 [THz] =     501.146534 [cm-1]
     freq (    5) =      15.065893 [THz] =     502.544083 [cm-1]
     freq (    6) =      15.065893 [THz] =     502.544083 [cm-1]
 **************************************************************************

     Mode symmetry, C_3v (3m)   point group:

     freq (   1-   2) =         73.5  [cm-1]   --> E    L_3           
     freq (   3-   3) =        158.4  [cm-1]   --> A_1  L_1           
     freq (   4-   4) =        501.1  [cm-1]   --> A_1  L_1           
     freq (   5-   6) =        502.5  [cm-1]   --> E    L_3           

     Calculation of q =   -0.3333333   0.3333333  -0.3333333
 
     Parallelization info
     --------------------
     sticks:   dense  smooth     PW     G-vecs:    dense   smooth      PW
     Min          27      27      8                  578      578     103
     Max          28      28      9                  581      581     109
     Sum        1003    1003    313                20875    20875    3839
 
     Using Slab Decomposition
 

     Title: 
     default                                                                    


     bravais-lattice index     =            2
     lattice parameter (alat)  =      10.1899  a.u.
     unit-cell volume          =     264.5151 (a.u.)^3
     number of atoms/cell      =            2
     number of atomic types    =            1
     number of electrons       =         8.00
     number of Kohn-Sham states=            4
     kinetic-energy cutoff     =      70.0000  Ry
     charge density cutoff     =     280.0000  Ry
     Exchange-correlation= PW
                           (   1   4   0   0   0   0   0)

     celldm(1)=  10.189905  celldm(2)=   0.000000  celldm(3)=   0.000000
     celldm(4)=   0.000000  celldm(5)=   0.000000  celldm(6)=   0.000000

     crystal axes: (cart. coord. in units of alat)
               a(1) = (  -0.500000   0.000000   0.500000 )  
               a(2) = (   0.000000   0.500000   0.500000 )  
               a(3) = (  -0.500000   0.500000   0.000000 )  

     reciprocal axes: (cart. coord. in units 2 pi/alat)
               b(1) = ( -1.000000 -1.000000  1.000000 )  
               b(2) = (  1.000000  1.000000  1.000000 )  
               b(3) = ( -1.000000  1.000000 -1.000000 )  


     PseudoPot. # 1 for Si read from file:
     ./pseudos/Si.nc.UPF
     MD5 check sum: 9e2d726316af3d4752eea8ab0afbb951
     Pseudo is Norm-conserving + core correction, Zval =  4.0
     Generated using ONCVPSP code by D. R. Hamann
     Using radial grid of 1510 points,  6 beta functions with: 
                l(1) =   0
                l(2) =   0
                l(3) =   1
                l(4) =   1
                l(5) =   2
                l(6) =   2

     atomic species   valence    mass     pseudopotential
        Si             4.00    28.08550     Si( 1.00)

     48 Sym. Ops., with inversion, found



   Cartesian axes

     site n.     atom                  positions (alat units)
         1           Si  tau(   1) = (   0.0000000   0.0000000   0.0000000  )
         2           Si  tau(   2) = (  -0.2500000   0.2500000   0.2500000  )

     number of k points=   364

     Number of k-points >= 100: set verbosity='high' to print them.

     Dense  grid:    20875 G-vectors     FFT dimensions: (  40,  40,  40)

     Estimated max dynamical RAM per process >       1.75 MB

     Estimated total dynamical RAM >      63.08 MB

     The potential is recalculated from file :
     /fastscratch/tsievers/QE_TMP_DIR/_ph0/silicon_ph_bench_nd_1_n_procs_36_4.save/charge-density

     Starting wfcs are    8 atomic wfcs

     Band Structure Calculation
     Davidson diagonalization with overlap

     ethr =  1.25E-10,  avg # of iterations = 12.9

     total cpu time spent up to now is       27.9 secs

     End of band structure calculation

     Number of k-points >= 100: set verbosity='high' to print the bands.

     highest occupied level (ev):     6.1106

     Writing config to output data dir /fastscratch/tsievers/QE_TMP_DIR/_ph0/silicon_ph_bench_nd_1_n_procs_36_4.save/

     default                                                                    

     bravais-lattice index     =            2
     lattice parameter (alat)  =      10.1899  a.u.
     unit-cell volume          =     264.5151 (a.u.)^3
     number of atoms/cell      =            2
     number of atomic types    =            1
     kinetic-energy cut-off    =      70.0000  Ry
     charge density cut-off    =     280.0000  Ry
     convergence threshold     =      1.0E-15
     beta                      =       0.7000
     number of iterations used =            4
     Exchange-correlation= PW
                           (   1   4   0   0   0   0   0)


     celldm(1)=   10.18990  celldm(2)=    0.00000  celldm(3)=    0.00000
     celldm(4)=    0.00000  celldm(5)=    0.00000  celldm(6)=    0.00000

     crystal axes: (cart. coord. in units of alat)
               a(1) = ( -0.5000  0.0000  0.5000 )  
               a(2) = (  0.0000  0.5000  0.5000 )  
               a(3) = ( -0.5000  0.5000  0.0000 )  

     reciprocal axes: (cart. coord. in units 2 pi/alat)
               b(1) = ( -1.0000 -1.0000  1.0000 )  
               b(2) = (  1.0000  1.0000  1.0000 )  
               b(3) = ( -1.0000  1.0000 -1.0000 )  


     Atoms inside the unit cell: 

     Cartesian axes

     site n.  atom      mass           positions (alat units)
        1     Si  28.0855   tau(    1) = (    0.00000    0.00000    0.00000  )
        2     Si  28.0855   tau(    2) = (   -0.25000    0.25000    0.25000  )

     Computing dynamical matrix for 
                    q = (  -0.3333333   0.3333333  -0.3333333 )
 
      6 Sym.Ops. (no q -> -q+G )


     G cutoff =  736.4420  (    581 G-vectors)     FFT grid: ( 40, 40, 40)
     number of k points=   364

     PseudoPot. # 1 for Si read from file:
     ./pseudos/Si.nc.UPF
     MD5 check sum: 9e2d726316af3d4752eea8ab0afbb951
     Pseudo is Norm-conserving + core correction, Zval =  4.0
     Generated using ONCVPSP code by D. R. Hamann
     Using radial grid of 1510 points,  6 beta functions with: 
                l(1) =   0
                l(2) =   0
                l(3) =   1
                l(4) =   1
                l(5) =   2
                l(6) =   2

     Mode symmetry, C_3v (3m)   point group:


     Atomic displacements:
     There are    4 irreducible representations

     Representation     1      1 modes -  To be done

     Representation     2      1 modes -  To be done

     Representation     3      2 modes -  To be done

     Representation     4      2 modes -  To be done



     Alpha used in Ewald sum =   2.8000
     PHONON       :   5m26.49s CPU   5m42.03s WALL



     Representation #   1 mode #   1

     Self-consistent Calculation

      iter #   1 total cpu time :   346.6 secs   av.it.:   6.5
      thresh= 1.000E-02 alpha_mix =  0.700 |ddv_scf|^2 =  3.033E-05

      iter #   2 total cpu time :   352.5 secs   av.it.:  10.2
      thresh= 5.507E-04 alpha_mix =  0.700 |ddv_scf|^2 =  2.420E-04

      iter #   3 total cpu time :   357.6 secs   av.it.:   8.8
      thresh= 1.556E-03 alpha_mix =  0.700 |ddv_scf|^2 =  4.458E-08

      iter #   4 total cpu time :   363.5 secs   av.it.:  10.3
      thresh= 2.111E-05 alpha_mix =  0.700 |ddv_scf|^2 =  9.071E-10

      iter #   5 total cpu time :   369.5 secs   av.it.:  10.4
      thresh= 3.012E-06 alpha_mix =  0.700 |ddv_scf|^2 =  9.543E-12

      iter #   6 total cpu time :   376.3 secs   av.it.:  11.0
      thresh= 3.089E-07 alpha_mix =  0.700 |ddv_scf|^2 =  8.472E-13

      iter #   7 total cpu time :   382.4 secs   av.it.:  10.9
      thresh= 9.205E-08 alpha_mix =  0.700 |ddv_scf|^2 =  2.143E-13

      iter #   8 total cpu time :   388.3 secs   av.it.:  10.2
      thresh= 4.630E-08 alpha_mix =  0.700 |ddv_scf|^2 =  5.816E-13

      iter #   9 total cpu time :   393.8 secs   av.it.:   9.5
      thresh= 7.626E-08 alpha_mix =  0.700 |ddv_scf|^2 =  4.098E-14

      iter #  10 total cpu time :   399.2 secs   av.it.:   9.3
      thresh= 2.024E-08 alpha_mix =  0.700 |ddv_scf|^2 =  1.344E-16

     End of self-consistent calculation

     Convergence has been achieved 


     Representation #   2 mode #   2

     Self-consistent Calculation

      iter #   1 total cpu time :   403.5 secs   av.it.:   6.5
      thresh= 1.000E-02 alpha_mix =  0.700 |ddv_scf|^2 =  3.033E-05

      iter #   2 total cpu time :   410.0 secs   av.it.:  10.2
      thresh= 5.507E-04 alpha_mix =  0.700 |ddv_scf|^2 =  2.420E-04

      iter #   3 total cpu time :   415.3 secs   av.it.:   8.8
      thresh= 1.556E-03 alpha_mix =  0.700 |ddv_scf|^2 =  4.458E-08

      iter #   4 total cpu time :   421.2 secs   av.it.:  10.4
      thresh= 2.111E-05 alpha_mix =  0.700 |ddv_scf|^2 =  9.071E-10

      iter #   5 total cpu time :   427.2 secs   av.it.:  10.4
      thresh= 3.012E-06 alpha_mix =  0.700 |ddv_scf|^2 =  9.543E-12

      iter #   6 total cpu time :   433.6 secs   av.it.:  11.0
      thresh= 3.089E-07 alpha_mix =  0.700 |ddv_scf|^2 =  8.473E-13

      iter #   7 total cpu time :   440.0 secs   av.it.:  10.9
      thresh= 9.205E-08 alpha_mix =  0.700 |ddv_scf|^2 =  2.146E-13

      iter #   8 total cpu time :   446.0 secs   av.it.:  10.3
      thresh= 4.632E-08 alpha_mix =  0.700 |ddv_scf|^2 =  5.817E-13

      iter #   9 total cpu time :   451.5 secs   av.it.:   9.5
      thresh= 7.627E-08 alpha_mix =  0.700 |ddv_scf|^2 =  4.103E-14

      iter #  10 total cpu time :   456.9 secs   av.it.:   9.3
      thresh= 2.026E-08 alpha_mix =  0.700 |ddv_scf|^2 =  1.346E-16

     End of self-consistent calculation

     Convergence has been achieved 


     Representation #   3 modes #   3   4

     Self-consistent Calculation

      iter #   1 total cpu time :   464.9 secs   av.it.:   6.1
      thresh= 1.000E-02 alpha_mix =  0.700 |ddv_scf|^2 =  1.702E-08

      iter #   2 total cpu time :   479.0 secs   av.it.:  12.0
      thresh= 1.305E-05 alpha_mix =  0.700 |ddv_scf|^2 =  1.179E-09

      iter #   3 total cpu time :   492.5 secs   av.it.:  11.8
      thresh= 3.434E-06 alpha_mix =  0.700 |ddv_scf|^2 =  1.707E-11

      iter #   4 total cpu time :   506.2 secs   av.it.:  11.9
      thresh= 4.131E-07 alpha_mix =  0.700 |ddv_scf|^2 =  1.711E-13

      iter #   5 total cpu time :   519.8 secs   av.it.:  11.9
      thresh= 4.137E-08 alpha_mix =  0.700 |ddv_scf|^2 =  3.332E-15

      iter #   6 total cpu time :   533.4 secs   av.it.:  12.2
      thresh= 5.772E-09 alpha_mix =  0.700 |ddv_scf|^2 =  2.270E-17

     End of self-consistent calculation

     Convergence has been achieved 


     Representation #   4 modes #   5   6

     Self-consistent Calculation

      iter #   1 total cpu time :   541.4 secs   av.it.:   6.1
      thresh= 1.000E-02 alpha_mix =  0.700 |ddv_scf|^2 =  1.702E-08

      iter #   2 total cpu time :   555.7 secs   av.it.:  12.0
      thresh= 1.305E-05 alpha_mix =  0.700 |ddv_scf|^2 =  1.180E-09

      iter #   3 total cpu time :   569.2 secs   av.it.:  11.8
      thresh= 3.435E-06 alpha_mix =  0.700 |ddv_scf|^2 =  1.706E-11

      iter #   4 total cpu time :   582.3 secs   av.it.:  11.9
      thresh= 4.130E-07 alpha_mix =  0.700 |ddv_scf|^2 =  1.712E-13

      iter #   5 total cpu time :   595.9 secs   av.it.:  11.9
      thresh= 4.138E-08 alpha_mix =  0.700 |ddv_scf|^2 =  3.330E-15

      iter #   6 total cpu time :   609.1 secs   av.it.:  12.2
      thresh= 5.771E-09 alpha_mix =  0.700 |ddv_scf|^2 =  2.267E-17

     End of self-consistent calculation

     Convergence has been achieved 
 
     Number of q in the star =    8
     List of q in the star:
          1  -0.333333333   0.333333333  -0.333333333
          2   0.333333333   0.333333333   0.333333333
          3  -0.333333333  -0.333333333  -0.333333333
          4   0.333333333  -0.333333333   0.333333333
          5   0.333333333  -0.333333333  -0.333333333
          6   0.333333333   0.333333333  -0.333333333
          7  -0.333333333  -0.333333333   0.333333333
          8  -0.333333333   0.333333333   0.333333333

     Diagonalizing the dynamical matrix

     q = (   -0.333333333   0.333333333  -0.333333333 ) 

 **************************************************************************
     freq (    1) =       3.044117 [THz] =     101.540797 [cm-1]
     freq (    2) =       3.044117 [THz] =     101.540797 [cm-1]
     freq (    3) =       8.748109 [THz] =     291.805498 [cm-1]
     freq (    4) =      13.857487 [THz] =     462.236001 [cm-1]
     freq (    5) =      14.763303 [THz] =     492.450778 [cm-1]
     freq (    6) =      14.763303 [THz] =     492.450778 [cm-1]
 **************************************************************************

     Mode symmetry, C_3v (3m)   point group:

     freq (   1-   2) =        101.5  [cm-1]   --> E    L_3           
     freq (   3-   3) =        291.8  [cm-1]   --> A_1  L_1           
     freq (   4-   4) =        462.2  [cm-1]   --> A_1  L_1           
     freq (   5-   6) =        492.5  [cm-1]   --> E    L_3           

     Calculation of q =    0.5000000  -0.5000000   0.5000000
 
     Parallelization info
     --------------------
     sticks:   dense  smooth     PW     G-vecs:    dense   smooth      PW
     Min          27      27      9                  578      578     110
     Max          28      28     11                  581      581     113
     Sum        1003    1003    337                20875    20875    4015
 
     Using Slab Decomposition
 

     Title: 
     default                                                                    


     bravais-lattice index     =            2
     lattice parameter (alat)  =      10.1899  a.u.
     unit-cell volume          =     264.5151 (a.u.)^3
     number of atoms/cell      =            2
     number of atomic types    =            1
     number of electrons       =         8.00
     number of Kohn-Sham states=            4
     kinetic-energy cutoff     =      70.0000  Ry
     charge density cutoff     =     280.0000  Ry
     Exchange-correlation= PW
                           (   1   4   0   0   0   0   0)

     celldm(1)=  10.189905  celldm(2)=   0.000000  celldm(3)=   0.000000
     celldm(4)=   0.000000  celldm(5)=   0.000000  celldm(6)=   0.000000

     crystal axes: (cart. coord. in units of alat)
               a(1) = (  -0.500000   0.000000   0.500000 )  
               a(2) = (   0.000000   0.500000   0.500000 )  
               a(3) = (  -0.500000   0.500000   0.000000 )  

     reciprocal axes: (cart. coord. in units 2 pi/alat)
               b(1) = ( -1.000000 -1.000000  1.000000 )  
               b(2) = (  1.000000  1.000000  1.000000 )  
               b(3) = ( -1.000000  1.000000 -1.000000 )  


     PseudoPot. # 1 for Si read from file:
     ./pseudos/Si.nc.UPF
     MD5 check sum: 9e2d726316af3d4752eea8ab0afbb951
     Pseudo is Norm-conserving + core correction, Zval =  4.0
     Generated using ONCVPSP code by D. R. Hamann
     Using radial grid of 1510 points,  6 beta functions with: 
                l(1) =   0
                l(2) =   0
                l(3) =   1
                l(4) =   1
                l(5) =   2
                l(6) =   2

     atomic species   valence    mass     pseudopotential
        Si             4.00    28.08550     Si( 1.00)

     48 Sym. Ops., with inversion, found



   Cartesian axes

     site n.     atom                  positions (alat units)
         1           Si  tau(   1) = (   0.0000000   0.0000000   0.0000000  )
         2           Si  tau(   2) = (  -0.2500000   0.2500000   0.2500000  )

     number of k points=   182

     Number of k-points >= 100: set verbosity='high' to print them.

     Dense  grid:    20875 G-vectors     FFT dimensions: (  40,  40,  40)

     Estimated max dynamical RAM per process >       1.77 MB

     Estimated total dynamical RAM >      63.60 MB

     The potential is recalculated from file :
     /fastscratch/tsievers/QE_TMP_DIR/_ph0/silicon_ph_bench_nd_1_n_procs_36_4.save/charge-density

     Starting wfcs are    8 atomic wfcs

     Band Structure Calculation
     Davidson diagonalization with overlap

     ethr =  1.25E-10,  avg # of iterations = 12.9

     total cpu time spent up to now is       34.9 secs

     End of band structure calculation

     Number of k-points >= 100: set verbosity='high' to print the bands.

     highest occupied level (ev):     6.1106

     Writing config to output data dir /fastscratch/tsievers/QE_TMP_DIR/_ph0/silicon_ph_bench_nd_1_n_procs_36_4.save/

     default                                                                    

     bravais-lattice index     =            2
     lattice parameter (alat)  =      10.1899  a.u.
     unit-cell volume          =     264.5151 (a.u.)^3
     number of atoms/cell      =            2
     number of atomic types    =            1
     kinetic-energy cut-off    =      70.0000  Ry
     charge density cut-off    =     280.0000  Ry
     convergence threshold     =      1.0E-15
     beta                      =       0.7000
     number of iterations used =            4
     Exchange-correlation= PW
                           (   1   4   0   0   0   0   0)


     celldm(1)=   10.18990  celldm(2)=    0.00000  celldm(3)=    0.00000
     celldm(4)=    0.00000  celldm(5)=    0.00000  celldm(6)=    0.00000

     crystal axes: (cart. coord. in units of alat)
               a(1) = ( -0.5000  0.0000  0.5000 )  
               a(2) = (  0.0000  0.5000  0.5000 )  
               a(3) = ( -0.5000  0.5000  0.0000 )  

     reciprocal axes: (cart. coord. in units 2 pi/alat)
               b(1) = ( -1.0000 -1.0000  1.0000 )  
               b(2) = (  1.0000  1.0000  1.0000 )  
               b(3) = ( -1.0000  1.0000 -1.0000 )  


     Atoms inside the unit cell: 

     Cartesian axes

     site n.  atom      mass           positions (alat units)
        1     Si  28.0855   tau(    1) = (    0.00000    0.00000    0.00000  )
        2     Si  28.0855   tau(    2) = (   -0.25000    0.25000    0.25000  )

     Computing dynamical matrix for 
                    q = (   0.5000000  -0.5000000   0.5000000 )
 
     13 Sym.Ops. (with q -> -q+G )


     G cutoff =  736.4420  (    581 G-vectors)     FFT grid: ( 40, 40, 40)
     number of k points=   182

     PseudoPot. # 1 for Si read from file:
     ./pseudos/Si.nc.UPF
     MD5 check sum: 9e2d726316af3d4752eea8ab0afbb951
     Pseudo is Norm-conserving + core correction, Zval =  4.0
     Generated using ONCVPSP code by D. R. Hamann
     Using radial grid of 1510 points,  6 beta functions with: 
                l(1) =   0
                l(2) =   0
                l(3) =   1
                l(4) =   1
                l(5) =   2
                l(6) =   2


     Atomic displacements:
     There are    4 irreducible representations

     Representation     1      1 modes -  To be done

     Representation     2      1 modes -  To be done

     Representation     3      2 modes -  To be done

     Representation     4      2 modes -  To be done



     Alpha used in Ewald sum =   2.8000
     PHONON       :   9m51.60s CPU  10m16.67s WALL



     Representation #   1 mode #   1

     Self-consistent Calculation

      iter #   1 total cpu time :   618.6 secs   av.it.:   5.8
      thresh= 1.000E-02 alpha_mix =  0.700 |ddv_scf|^2 =  9.702E-07

      iter #   2 total cpu time :   621.6 secs   av.it.:  10.5
      thresh= 9.850E-05 alpha_mix =  0.700 |ddv_scf|^2 =  8.951E-07

      iter #   3 total cpu time :   624.4 secs   av.it.:   9.8
      thresh= 9.461E-05 alpha_mix =  0.700 |ddv_scf|^2 =  1.197E-10

      iter #   4 total cpu time :   627.5 secs   av.it.:  10.6
      thresh= 1.094E-06 alpha_mix =  0.700 |ddv_scf|^2 =  2.065E-12

      iter #   5 total cpu time :   630.4 secs   av.it.:  10.3
      thresh= 1.437E-07 alpha_mix =  0.700 |ddv_scf|^2 =  2.936E-14

      iter #   6 total cpu time :   633.4 secs   av.it.:  10.3
      thresh= 1.714E-08 alpha_mix =  0.700 |ddv_scf|^2 =  3.835E-16

     End of self-consistent calculation

     Convergence has been achieved 


     Representation #   2 mode #   2

     Self-consistent Calculation

      iter #   1 total cpu time :   635.6 secs   av.it.:   6.7
      thresh= 1.000E-02 alpha_mix =  0.700 |ddv_scf|^2 =  1.482E-05

      iter #   2 total cpu time :   638.6 secs   av.it.:  10.6
      thresh= 3.850E-04 alpha_mix =  0.700 |ddv_scf|^2 =  4.842E-05

      iter #   3 total cpu time :   641.4 secs   av.it.:   9.6
      thresh= 6.959E-04 alpha_mix =  0.700 |ddv_scf|^2 =  2.860E-09

      iter #   4 total cpu time :   644.3 secs   av.it.:  10.3
      thresh= 5.348E-06 alpha_mix =  0.700 |ddv_scf|^2 =  6.021E-11

      iter #   5 total cpu time :   647.4 secs   av.it.:  10.8
      thresh= 7.760E-07 alpha_mix =  0.700 |ddv_scf|^2 =  3.010E-12

      iter #   6 total cpu time :   650.4 secs   av.it.:  10.5
      thresh= 1.735E-07 alpha_mix =  0.700 |ddv_scf|^2 =  8.529E-14

      iter #   7 total cpu time :   653.5 secs   av.it.:  10.1
      thresh= 2.920E-08 alpha_mix =  0.700 |ddv_scf|^2 =  1.426E-17

     End of self-consistent calculation

     Convergence has been achieved 


     Representation #   3 modes #   3   4

     Self-consistent Calculation

      iter #   1 total cpu time :   657.6 secs   av.it.:   6.1
      thresh= 1.000E-02 alpha_mix =  0.700 |ddv_scf|^2 =  3.425E-08

      iter #   2 total cpu time :   664.1 secs   av.it.:  11.9
      thresh= 1.851E-05 alpha_mix =  0.700 |ddv_scf|^2 =  2.903E-09

      iter #   3 total cpu time :   670.6 secs   av.it.:  11.7
      thresh= 5.388E-06 alpha_mix =  0.700 |ddv_scf|^2 =  1.944E-11

      iter #   4 total cpu time :   677.1 secs   av.it.:  11.6
      thresh= 4.409E-07 alpha_mix =  0.700 |ddv_scf|^2 =  2.174E-14

      iter #   5 total cpu time :   684.8 secs   av.it.:  12.1
      thresh= 1.475E-08 alpha_mix =  0.700 |ddv_scf|^2 =  2.860E-16

     End of self-consistent calculation

     Convergence has been achieved 


     Representation #   4 modes #   5   6

     Self-consistent Calculation

      iter #   1 total cpu time :   688.6 secs   av.it.:   5.5
      thresh= 1.000E-02 alpha_mix =  0.700 |ddv_scf|^2 =  3.888E-09

      iter #   2 total cpu time :   695.2 secs   av.it.:  11.8
      thresh= 6.235E-06 alpha_mix =  0.700 |ddv_scf|^2 =  1.020E-10

      iter #   3 total cpu time :   701.7 secs   av.it.:  11.7
      thresh= 1.010E-06 alpha_mix =  0.700 |ddv_scf|^2 =  6.269E-12

      iter #   4 total cpu time :   708.2 secs   av.it.:  11.7
      thresh= 2.504E-07 alpha_mix =  0.700 |ddv_scf|^2 =  2.679E-14

      iter #   5 total cpu time :   715.5 secs   av.it.:  11.8
      thresh= 1.637E-08 alpha_mix =  0.700 |ddv_scf|^2 =  4.281E-16

     End of self-consistent calculation

     Convergence has been achieved 
 
     Number of q in the star =    4
     List of q in the star:
          1   0.500000000  -0.500000000   0.500000000
          2   0.500000000   0.500000000   0.500000000
          3  -0.500000000   0.500000000   0.500000000
          4   0.500000000   0.500000000  -0.500000000

     Diagonalizing the dynamical matrix

     q = (    0.500000000  -0.500000000   0.500000000 ) 

 **************************************************************************
     freq (    1) =       3.157204 [THz] =     105.312975 [cm-1]
     freq (    2) =       3.157204 [THz] =     105.312975 [cm-1]
     freq (    3) =      11.169091 [THz] =     372.560779 [cm-1]
     freq (    4) =      12.390625 [THz] =     413.306751 [cm-1]
     freq (    5) =      14.704263 [THz] =     490.481417 [cm-1]
     freq (    6) =      14.704263 [THz] =     490.481417 [cm-1]
 **************************************************************************

     Calculation of q =    0.0000000   0.3333333   0.0000000
 
     Parallelization info
     --------------------
     sticks:   dense  smooth     PW     G-vecs:    dense   smooth      PW
     Min          27      27      8                  578      578     101
     Max          28      28      9                  581      581     106
     Sum        1003    1003    313                20875    20875    3719
 
     Using Slab Decomposition
 

     Title: 
     default                                                                    


     bravais-lattice index     =            2
     lattice parameter (alat)  =      10.1899  a.u.
     unit-cell volume          =     264.5151 (a.u.)^3
     number of atoms/cell      =            2
     number of atomic types    =            1
     number of electrons       =         8.00
     number of Kohn-Sham states=            4
     kinetic-energy cutoff     =      70.0000  Ry
     charge density cutoff     =     280.0000  Ry
     Exchange-correlation= PW
                           (   1   4   0   0   0   0   0)

     celldm(1)=  10.189905  celldm(2)=   0.000000  celldm(3)=   0.000000
     celldm(4)=   0.000000  celldm(5)=   0.000000  celldm(6)=   0.000000

     crystal axes: (cart. coord. in units of alat)
               a(1) = (  -0.500000   0.000000   0.500000 )  
               a(2) = (   0.000000   0.500000   0.500000 )  
               a(3) = (  -0.500000   0.500000   0.000000 )  

     reciprocal axes: (cart. coord. in units 2 pi/alat)
               b(1) = ( -1.000000 -1.000000  1.000000 )  
               b(2) = (  1.000000  1.000000  1.000000 )  
               b(3) = ( -1.000000  1.000000 -1.000000 )  


     PseudoPot. # 1 for Si read from file:
     ./pseudos/Si.nc.UPF
     MD5 check sum: 9e2d726316af3d4752eea8ab0afbb951
     Pseudo is Norm-conserving + core correction, Zval =  4.0
     Generated using ONCVPSP code by D. R. Hamann
     Using radial grid of 1510 points,  6 beta functions with: 
                l(1) =   0
                l(2) =   0
                l(3) =   1
                l(4) =   1
                l(5) =   2
                l(6) =   2

     atomic species   valence    mass     pseudopotential
        Si             4.00    28.08550     Si( 1.00)

     48 Sym. Ops., with inversion, found



   Cartesian axes

     site n.     atom                  positions (alat units)
         1           Si  tau(   1) = (   0.0000000   0.0000000   0.0000000  )
         2           Si  tau(   2) = (  -0.2500000   0.2500000   0.2500000  )

     number of k points=   252

     Number of k-points >= 100: set verbosity='high' to print them.

     Dense  grid:    20875 G-vectors     FFT dimensions: (  40,  40,  40)

     Estimated max dynamical RAM per process >       1.74 MB

     Estimated total dynamical RAM >      62.65 MB

     The potential is recalculated from file :
     /fastscratch/tsievers/QE_TMP_DIR/_ph0/silicon_ph_bench_nd_1_n_procs_36_4.save/charge-density

     Starting wfcs are    8 atomic wfcs

     Band Structure Calculation
     Davidson diagonalization with overlap

     ethr =  1.25E-10,  avg # of iterations = 12.8

     total cpu time spent up to now is       44.3 secs

     End of band structure calculation

     Number of k-points >= 100: set verbosity='high' to print the bands.

     highest occupied level (ev):     6.1106

     Writing config to output data dir /fastscratch/tsievers/QE_TMP_DIR/_ph0/silicon_ph_bench_nd_1_n_procs_36_4.save/

     default                                                                    

     bravais-lattice index     =            2
     lattice parameter (alat)  =      10.1899  a.u.
     unit-cell volume          =     264.5151 (a.u.)^3
     number of atoms/cell      =            2
     number of atomic types    =            1
     kinetic-energy cut-off    =      70.0000  Ry
     charge density cut-off    =     280.0000  Ry
     convergence threshold     =      1.0E-15
     beta                      =       0.7000
     number of iterations used =            4
     Exchange-correlation= PW
                           (   1   4   0   0   0   0   0)


     celldm(1)=   10.18990  celldm(2)=    0.00000  celldm(3)=    0.00000
     celldm(4)=    0.00000  celldm(5)=    0.00000  celldm(6)=    0.00000

     crystal axes: (cart. coord. in units of alat)
               a(1) = ( -0.5000  0.0000  0.5000 )  
               a(2) = (  0.0000  0.5000  0.5000 )  
               a(3) = ( -0.5000  0.5000  0.0000 )  

     reciprocal axes: (cart. coord. in units 2 pi/alat)
               b(1) = ( -1.0000 -1.0000  1.0000 )  
               b(2) = (  1.0000  1.0000  1.0000 )  
               b(3) = ( -1.0000  1.0000 -1.0000 )  


     Atoms inside the unit cell: 

     Cartesian axes

     site n.  atom      mass           positions (alat units)
        1     Si  28.0855   tau(    1) = (    0.00000    0.00000    0.00000  )
        2     Si  28.0855   tau(    2) = (   -0.25000    0.25000    0.25000  )

     Computing dynamical matrix for 
                    q = (   0.0000000   0.3333333   0.0000000 )
 
      8 Sym.Ops. (no q -> -q+G )


     G cutoff =  736.4420  (    581 G-vectors)     FFT grid: ( 40, 40, 40)
     number of k points=   252

     PseudoPot. # 1 for Si read from file:
     ./pseudos/Si.nc.UPF
     MD5 check sum: 9e2d726316af3d4752eea8ab0afbb951
     Pseudo is Norm-conserving + core correction, Zval =  4.0
     Generated using ONCVPSP code by D. R. Hamann
     Using radial grid of 1510 points,  6 beta functions with: 
                l(1) =   0
                l(2) =   0
                l(3) =   1
                l(4) =   1
                l(5) =   2
                l(6) =   2

     Mode symmetry, C_4v (4mm)  point group:


     Atomic displacements:
     There are    4 irreducible representations

     Representation     1      1 modes -  To be done

     Representation     2      1 modes -  To be done

     Representation     3      2 modes -  To be done

     Representation     4      2 modes -  To be done



     Alpha used in Ewald sum =   2.8000
     PHONON       :  11m35.36s CPU  12m 5.76s WALL



     Representation #   1 mode #   1

     Self-consistent Calculation

      iter #   1 total cpu time :   728.7 secs   av.it.:   6.8
      thresh= 1.000E-02 alpha_mix =  0.700 |ddv_scf|^2 =  6.433E-04

      iter #   2 total cpu time :   732.6 secs   av.it.:   9.7
      thresh= 2.536E-03 alpha_mix =  0.700 |ddv_scf|^2 =  1.962E-02

      iter #   3 total cpu time :   735.9 secs   av.it.:   8.0
      thresh= 1.000E-02 alpha_mix =  0.700 |ddv_scf|^2 =  1.809E-08

      iter #   4 total cpu time :   739.7 secs   av.it.:   9.5
      thresh= 1.345E-05 alpha_mix =  0.700 |ddv_scf|^2 =  8.602E-10

      iter #   5 total cpu time :   743.8 secs   av.it.:   9.2
      thresh= 2.933E-06 alpha_mix =  0.700 |ddv_scf|^2 =  2.805E-10

      iter #   6 total cpu time :   747.4 secs   av.it.:   8.8
      thresh= 1.675E-06 alpha_mix =  0.700 |ddv_scf|^2 =  3.776E-13

      iter #   7 total cpu time :   751.0 secs   av.it.:   9.0
      thresh= 6.145E-08 alpha_mix =  0.700 |ddv_scf|^2 =  8.854E-15

      iter #   8 total cpu time :   754.6 secs   av.it.:   8.9
      thresh= 9.409E-09 alpha_mix =  0.700 |ddv_scf|^2 =  9.927E-17

     End of self-consistent calculation

     Convergence has been achieved 


     Representation #   2 mode #   2

     Self-consistent Calculation

      iter #   1 total cpu time :   757.3 secs   av.it.:   5.9
      thresh= 1.000E-02 alpha_mix =  0.700 |ddv_scf|^2 =  9.820E-08

      iter #   2 total cpu time :   761.9 secs   av.it.:  10.9
      thresh= 3.134E-05 alpha_mix =  0.700 |ddv_scf|^2 =  1.588E-08

      iter #   3 total cpu time :   766.0 secs   av.it.:  10.7
      thresh= 1.260E-05 alpha_mix =  0.700 |ddv_scf|^2 =  2.009E-10

      iter #   4 total cpu time :   770.4 secs   av.it.:  10.8
      thresh= 1.417E-06 alpha_mix =  0.700 |ddv_scf|^2 =  8.342E-12

      iter #   5 total cpu time :   774.7 secs   av.it.:  10.8
      thresh= 2.888E-07 alpha_mix =  0.700 |ddv_scf|^2 =  1.900E-14

      iter #   6 total cpu time :   780.2 secs   av.it.:  11.1
      thresh= 1.378E-08 alpha_mix =  0.700 |ddv_scf|^2 =  3.799E-16

     End of self-consistent calculation

     Convergence has been achieved 


     Representation #   3 modes #   3   4

     Self-consistent Calculation

      iter #   1 total cpu time :   785.7 secs   av.it.:   6.0
      thresh= 1.000E-02 alpha_mix =  0.700 |ddv_scf|^2 =  1.777E-08

      iter #   2 total cpu time :   795.5 secs   av.it.:  12.0
      thresh= 1.333E-05 alpha_mix =  0.700 |ddv_scf|^2 =  1.620E-09

      iter #   3 total cpu time :   804.4 secs   av.it.:  11.7
      thresh= 4.025E-06 alpha_mix =  0.700 |ddv_scf|^2 =  1.888E-11

      iter #   4 total cpu time :   813.8 secs   av.it.:  11.9
      thresh= 4.346E-07 alpha_mix =  0.700 |ddv_scf|^2 =  2.124E-13

      iter #   5 total cpu time :   823.3 secs   av.it.:  11.8
      thresh= 4.609E-08 alpha_mix =  0.700 |ddv_scf|^2 =  3.526E-15

      iter #   6 total cpu time :   832.5 secs   av.it.:  12.2
      thresh= 5.938E-09 alpha_mix =  0.700 |ddv_scf|^2 =  1.435E-17

     End of self-consistent calculation

     Convergence has been achieved 


     Representation #   4 modes #   5   6

     Self-consistent Calculation

      iter #   1 total cpu time :   838.0 secs   av.it.:   6.0
      thresh= 1.000E-02 alpha_mix =  0.700 |ddv_scf|^2 =  2.343E-08

      iter #   2 total cpu time :   847.7 secs   av.it.:  11.9
      thresh= 1.531E-05 alpha_mix =  0.700 |ddv_scf|^2 =  2.210E-09

      iter #   3 total cpu time :   856.9 secs   av.it.:  11.6
      thresh= 4.701E-06 alpha_mix =  0.700 |ddv_scf|^2 =  1.999E-11

      iter #   4 total cpu time :   865.9 secs   av.it.:  11.8
      thresh= 4.471E-07 alpha_mix =  0.700 |ddv_scf|^2 =  1.359E-13

      iter #   5 total cpu time :   874.8 secs   av.it.:  11.7
      thresh= 3.686E-08 alpha_mix =  0.700 |ddv_scf|^2 =  3.228E-15

      iter #   6 total cpu time :   884.3 secs   av.it.:  12.2
      thresh= 5.681E-09 alpha_mix =  0.700 |ddv_scf|^2 =  1.366E-17

     End of self-consistent calculation

     Convergence has been achieved 
 
     Number of q in the star =    6
     List of q in the star:
          1   0.000000000   0.333333333   0.000000000
          2   0.333333333   0.000000000   0.000000000
          3   0.000000000   0.000000000   0.333333333
          4   0.000000000  -0.333333333   0.000000000
          5  -0.333333333   0.000000000   0.000000000
          6   0.000000000   0.000000000  -0.333333333

     Diagonalizing the dynamical matrix

     q = (    0.000000000   0.333333333   0.000000000 ) 

 **************************************************************************
     freq (    1) =       2.948465 [THz] =      98.350191 [cm-1]
     freq (    2) =       2.948465 [THz] =      98.350191 [cm-1]
     freq (    3) =       4.953355 [THz] =     165.226130 [cm-1]
     freq (    4) =      14.670281 [THz] =     489.347897 [cm-1]
     freq (    5) =      14.670281 [THz] =     489.347897 [cm-1]
     freq (    6) =      15.142893 [THz] =     505.112536 [cm-1]
 **************************************************************************

     Mode symmetry, C_4v (4mm)  point group:

     freq (   1-   2) =         98.4  [cm-1]   --> E    G_5 D_5       
     freq (   3-   3) =        165.2  [cm-1]   --> A_1  G_1 D_1       
     freq (   4-   5) =        489.3  [cm-1]   --> E    G_5 D_5       
     freq (   6-   6) =        505.1  [cm-1]   --> B_2  G_4 D_2'      

     Calculation of q =   -0.1666667   0.5000000  -0.1666667
 
     Parallelization info
     --------------------
     sticks:   dense  smooth     PW     G-vecs:    dense   smooth      PW
     Min          27      27      8                  578      578     103
     Max          28      28      9                  581      581     109
     Sum        1003    1003    313                20875    20875    3839
 
     Using Slab Decomposition
 

     Title: 
     default                                                                    


     bravais-lattice index     =            2
     lattice parameter (alat)  =      10.1899  a.u.
     unit-cell volume          =     264.5151 (a.u.)^3
     number of atoms/cell      =            2
     number of atomic types    =            1
     number of electrons       =         8.00
     number of Kohn-Sham states=            4
     kinetic-energy cutoff     =      70.0000  Ry
     charge density cutoff     =     280.0000  Ry
     Exchange-correlation= PW
                           (   1   4   0   0   0   0   0)

     celldm(1)=  10.189905  celldm(2)=   0.000000  celldm(3)=   0.000000
     celldm(4)=   0.000000  celldm(5)=   0.000000  celldm(6)=   0.000000

     crystal axes: (cart. coord. in units of alat)
               a(1) = (  -0.500000   0.000000   0.500000 )  
               a(2) = (   0.000000   0.500000   0.500000 )  
               a(3) = (  -0.500000   0.500000   0.000000 )  

     reciprocal axes: (cart. coord. in units 2 pi/alat)
               b(1) = ( -1.000000 -1.000000  1.000000 )  
               b(2) = (  1.000000  1.000000  1.000000 )  
               b(3) = ( -1.000000  1.000000 -1.000000 )  


     PseudoPot. # 1 for Si read from file:
     ./pseudos/Si.nc.UPF
     MD5 check sum: 9e2d726316af3d4752eea8ab0afbb951
     Pseudo is Norm-conserving + core correction, Zval =  4.0
     Generated using ONCVPSP code by D. R. Hamann
     Using radial grid of 1510 points,  6 beta functions with: 
                l(1) =   0
                l(2) =   0
                l(3) =   1
                l(4) =   1
                l(5) =   2
                l(6) =   2

     atomic species   valence    mass     pseudopotential
        Si             4.00    28.08550     Si( 1.00)

     48 Sym. Ops., with inversion, found



   Cartesian axes

     site n.     atom                  positions (alat units)
         1           Si  tau(   1) = (   0.0000000   0.0000000   0.0000000  )
         2           Si  tau(   2) = (  -0.2500000   0.2500000   0.2500000  )

     number of k points=   936

     Number of k-points >= 100: set verbosity='high' to print them.

     Dense  grid:    20875 G-vectors     FFT dimensions: (  40,  40,  40)

     Estimated max dynamical RAM per process >       1.75 MB

     Estimated total dynamical RAM >      63.05 MB

     The potential is recalculated from file :
     /fastscratch/tsievers/QE_TMP_DIR/_ph0/silicon_ph_bench_nd_1_n_procs_36_4.save/charge-density

     Starting wfcs are    8 atomic wfcs

     Band Structure Calculation
     Davidson diagonalization with overlap

     ethr =  1.25E-10,  avg # of iterations = 12.8

     total cpu time spent up to now is       79.8 secs

     End of band structure calculation

     Number of k-points >= 100: set verbosity='high' to print the bands.

     highest occupied level (ev):     6.1106

     Writing config to output data dir /fastscratch/tsievers/QE_TMP_DIR/_ph0/silicon_ph_bench_nd_1_n_procs_36_4.save/

     default                                                                    

     bravais-lattice index     =            2
     lattice parameter (alat)  =      10.1899  a.u.
     unit-cell volume          =     264.5151 (a.u.)^3
     number of atoms/cell      =            2
     number of atomic types    =            1
     kinetic-energy cut-off    =      70.0000  Ry
     charge density cut-off    =     280.0000  Ry
     convergence threshold     =      1.0E-15
     beta                      =       0.7000
     number of iterations used =            4
     Exchange-correlation= PW
                           (   1   4   0   0   0   0   0)


     celldm(1)=   10.18990  celldm(2)=    0.00000  celldm(3)=    0.00000
     celldm(4)=    0.00000  celldm(5)=    0.00000  celldm(6)=    0.00000

     crystal axes: (cart. coord. in units of alat)
               a(1) = ( -0.5000  0.0000  0.5000 )  
               a(2) = (  0.0000  0.5000  0.5000 )  
               a(3) = ( -0.5000  0.5000  0.0000 )  

     reciprocal axes: (cart. coord. in units 2 pi/alat)
               b(1) = ( -1.0000 -1.0000  1.0000 )  
               b(2) = (  1.0000  1.0000  1.0000 )  
               b(3) = ( -1.0000  1.0000 -1.0000 )  


     Atoms inside the unit cell: 

     Cartesian axes

     site n.  atom      mass           positions (alat units)
        1     Si  28.0855   tau(    1) = (    0.00000    0.00000    0.00000  )
        2     Si  28.0855   tau(    2) = (   -0.25000    0.25000    0.25000  )

     Computing dynamical matrix for 
                    q = (  -0.1666667   0.5000000  -0.1666667 )
 
      2 Sym.Ops. (no q -> -q+G )


     G cutoff =  736.4420  (    581 G-vectors)     FFT grid: ( 40, 40, 40)
     number of k points=   936

     PseudoPot. # 1 for Si read from file:
     ./pseudos/Si.nc.UPF
[...]
      thresh= 1.000E-02 alpha_mix =  0.700 |ddv_scf|^2 =  1.661E-06

      iter #   2 total cpu time :  5951.8 secs   av.it.:  11.3
      thresh= 1.289E-04 alpha_mix =  0.700 |ddv_scf|^2 =  2.106E-06

      iter #   3 total cpu time :  5964.3 secs   av.it.:  10.5
      thresh= 1.451E-04 alpha_mix =  0.700 |ddv_scf|^2 =  2.411E-08

      iter #   4 total cpu time :  5977.6 secs   av.it.:  10.8
      thresh= 1.553E-05 alpha_mix =  0.700 |ddv_scf|^2 =  1.213E-10

      iter #   5 total cpu time :  5990.5 secs   av.it.:  11.0
      thresh= 1.101E-06 alpha_mix =  0.700 |ddv_scf|^2 =  3.073E-12

      iter #   6 total cpu time :  6004.1 secs   av.it.:  11.2
      thresh= 1.753E-07 alpha_mix =  0.700 |ddv_scf|^2 =  1.804E-14

      iter #   7 total cpu time :  6017.0 secs   av.it.:  11.0
      thresh= 1.343E-08 alpha_mix =  0.700 |ddv_scf|^2 =  1.997E-15

      iter #   8 total cpu time :  6030.9 secs   av.it.:  11.1
      thresh= 4.469E-09 alpha_mix =  0.700 |ddv_scf|^2 =  5.671E-17

     End of self-consistent calculation

     Convergence has been achieved 


     Representation #   6 mode #   6

     Self-consistent Calculation

      iter #   1 total cpu time :  6039.7 secs   av.it.:   6.3
      thresh= 1.000E-02 alpha_mix =  0.700 |ddv_scf|^2 =  7.807E-07

      iter #   2 total cpu time :  6054.0 secs   av.it.:  11.2
      thresh= 8.835E-05 alpha_mix =  0.700 |ddv_scf|^2 =  8.561E-07

      iter #   3 total cpu time :  6066.3 secs   av.it.:  10.5
      thresh= 9.253E-05 alpha_mix =  0.700 |ddv_scf|^2 =  2.096E-08

      iter #   4 total cpu time :  6079.4 secs   av.it.:  10.7
      thresh= 1.448E-05 alpha_mix =  0.700 |ddv_scf|^2 =  6.839E-11

      iter #   5 total cpu time :  6092.1 secs   av.it.:  11.0
      thresh= 8.270E-07 alpha_mix =  0.700 |ddv_scf|^2 =  1.288E-12

      iter #   6 total cpu time :  6105.7 secs   av.it.:  11.1
      thresh= 1.135E-07 alpha_mix =  0.700 |ddv_scf|^2 =  6.018E-15

      iter #   7 total cpu time :  6118.4 secs   av.it.:  11.1
      thresh= 7.757E-09 alpha_mix =  0.700 |ddv_scf|^2 =  3.475E-16

     End of self-consistent calculation

     Convergence has been achieved 
 
     Number of q in the star =   24
     List of q in the star:
          1   0.500000000  -0.166666667   0.833333333
          2   0.833333333   0.166666667   0.500000000
          3   0.500000000   0.166666667   0.833333333
          4  -0.833333333  -0.166666667   0.500000000
          5  -0.833333333  -0.166666667  -0.500000000
          6  -0.500000000  -0.166666667  -0.833333333
          7   0.833333333  -0.166666667   0.500000000
          8  -0.500000000  -0.166666667   0.833333333
          9  -0.833333333   0.166666667   0.500000000
         10   0.833333333   0.166666667  -0.500000000
         11   0.833333333  -0.166666667  -0.500000000
         12   0.500000000   0.166666667  -0.833333333
         13  -0.500000000   0.166666667   0.833333333
         14  -0.500000000   0.166666667  -0.833333333
         15  -0.833333333   0.166666667  -0.500000000
         16   0.833333333  -0.500000000   0.166666667
         17   0.833333333   0.500000000  -0.166666667
         18  -0.833333333  -0.500000000  -0.166666667
         19  -0.833333333   0.500000000   0.166666667
         20   0.166666667  -0.500000000   0.833333333
         21  -0.166666667   0.500000000   0.833333333
         22   0.166666667   0.500000000  -0.833333333
         23  -0.166666667  -0.500000000  -0.833333333
         24  -0.500000000   0.833333333   0.166666667

     Diagonalizing the dynamical matrix

     q = (    0.500000000  -0.166666667   0.833333333 ) 

 **************************************************************************
     freq (    1) =       5.052005 [THz] =     168.516757 [cm-1]
     freq (    2) =       6.066398 [THz] =     202.353251 [cm-1]
     freq (    3) =       9.812846 [THz] =     327.321311 [cm-1]
     freq (    4) =      11.453216 [THz] =     382.038153 [cm-1]
     freq (    5) =      14.042032 [THz] =     468.391780 [cm-1]
     freq (    6) =      14.270793 [THz] =     476.022419 [cm-1]
 **************************************************************************

     Calculation of q =   -0.3333333  -1.0000000   0.0000000
 
     Parallelization info
     --------------------
     sticks:   dense  smooth     PW     G-vecs:    dense   smooth      PW
     Min          27      27      9                  578      578     117
     Max          28      28     10                  581      581     121
     Sum        1003    1003    349                20875    20875    4279
 
     Using Slab Decomposition
 

     Title: 
     default                                                                    


     bravais-lattice index     =            2
     lattice parameter (alat)  =      10.1899  a.u.
     unit-cell volume          =     264.5151 (a.u.)^3
     number of atoms/cell      =            2
     number of atomic types    =            1
     number of electrons       =         8.00
     number of Kohn-Sham states=            4
     kinetic-energy cutoff     =      70.0000  Ry
     charge density cutoff     =     280.0000  Ry
     Exchange-correlation= PW
                           (   1   4   0   0   0   0   0)

     celldm(1)=  10.189905  celldm(2)=   0.000000  celldm(3)=   0.000000
     celldm(4)=   0.000000  celldm(5)=   0.000000  celldm(6)=   0.000000

     crystal axes: (cart. coord. in units of alat)
               a(1) = (  -0.500000   0.000000   0.500000 )  
               a(2) = (   0.000000   0.500000   0.500000 )  
               a(3) = (  -0.500000   0.500000   0.000000 )  

     reciprocal axes: (cart. coord. in units 2 pi/alat)
               b(1) = ( -1.000000 -1.000000  1.000000 )  
               b(2) = (  1.000000  1.000000  1.000000 )  
               b(3) = ( -1.000000  1.000000 -1.000000 )  


     PseudoPot. # 1 for Si read from file:
     ./pseudos/Si.nc.UPF
     MD5 check sum: 9e2d726316af3d4752eea8ab0afbb951
     Pseudo is Norm-conserving + core correction, Zval =  4.0
     Generated using ONCVPSP code by D. R. Hamann
     Using radial grid of 1510 points,  6 beta functions with: 
                l(1) =   0
                l(2) =   0
                l(3) =   1
                l(4) =   1
                l(5) =   2
                l(6) =   2

     atomic species   valence    mass     pseudopotential
        Si             4.00    28.08550     Si( 1.00)

     48 Sym. Ops., with inversion, found



   Cartesian axes

     site n.     atom                  positions (alat units)
         1           Si  tau(   1) = (   0.0000000   0.0000000   0.0000000  )
         2           Si  tau(   2) = (  -0.2500000   0.2500000   0.2500000  )

     number of k points=   432

     Number of k-points >= 100: set verbosity='high' to print them.

     Dense  grid:    20875 G-vectors     FFT dimensions: (  40,  40,  40)

     Estimated max dynamical RAM per process >       1.78 MB

     Estimated total dynamical RAM >      63.95 MB

     The potential is recalculated from file :
     /fastscratch/tsievers/QE_TMP_DIR/_ph0/silicon_ph_bench_nd_1_n_procs_36_4.save/charge-density

     Starting wfcs are    8 atomic wfcs

     Band Structure Calculation
     Davidson diagonalization with overlap

     ethr =  1.25E-10,  avg # of iterations = 12.8

     total cpu time spent up to now is      298.4 secs

     End of band structure calculation

     Number of k-points >= 100: set verbosity='high' to print the bands.

     highest occupied level (ev):     6.1106

     Writing config to output data dir /fastscratch/tsievers/QE_TMP_DIR/_ph0/silicon_ph_bench_nd_1_n_procs_36_4.save/

     default                                                                    

     bravais-lattice index     =            2
     lattice parameter (alat)  =      10.1899  a.u.
     unit-cell volume          =     264.5151 (a.u.)^3
     number of atoms/cell      =            2
     number of atomic types    =            1
     kinetic-energy cut-off    =      70.0000  Ry
     charge density cut-off    =     280.0000  Ry
     convergence threshold     =      1.0E-15
     beta                      =       0.7000
     number of iterations used =            4
     Exchange-correlation= PW
                           (   1   4   0   0   0   0   0)


     celldm(1)=   10.18990  celldm(2)=    0.00000  celldm(3)=    0.00000
     celldm(4)=    0.00000  celldm(5)=    0.00000  celldm(6)=    0.00000

     crystal axes: (cart. coord. in units of alat)
               a(1) = ( -0.5000  0.0000  0.5000 )  
               a(2) = (  0.0000  0.5000  0.5000 )  
               a(3) = ( -0.5000  0.5000  0.0000 )  

     reciprocal axes: (cart. coord. in units 2 pi/alat)
               b(1) = ( -1.0000 -1.0000  1.0000 )  
               b(2) = (  1.0000  1.0000  1.0000 )  
               b(3) = ( -1.0000  1.0000 -1.0000 )  


     Atoms inside the unit cell: 

     Cartesian axes

     site n.  atom      mass           positions (alat units)
        1     Si  28.0855   tau(    1) = (    0.00000    0.00000    0.00000  )
        2     Si  28.0855   tau(    2) = (   -0.25000    0.25000    0.25000  )

     Computing dynamical matrix for 
                    q = (  -0.3333333  -1.0000000   0.0000000 )
 
      4 Sym.Ops. (no q -> -q+G )


     G cutoff =  736.4420  (    581 G-vectors)     FFT grid: ( 40, 40, 40)
     number of k points=   432

     PseudoPot. # 1 for Si read from file:
     ./pseudos/Si.nc.UPF
     MD5 check sum: 9e2d726316af3d4752eea8ab0afbb951
     Pseudo is Norm-conserving + core correction, Zval =  4.0
     Generated using ONCVPSP code by D. R. Hamann
     Using radial grid of 1510 points,  6 beta functions with: 
                l(1) =   0
                l(2) =   0
                l(3) =   1
                l(4) =   1
                l(5) =   2
                l(6) =   2


     Atomic displacements:
     There are    3 irreducible representations

     Representation     1      2 modes -  To be done

     Representation     2      2 modes -  To be done

     Representation     3      2 modes -  To be done



     Alpha used in Ewald sum =   2.8000
     PHONON       :      1h38m CPU      1h42m WALL



     Representation #   1 modes #   1   2

     Self-consistent Calculation

      iter #   1 total cpu time :  6142.6 secs   av.it.:   6.2
      thresh= 1.000E-02 alpha_mix =  0.700 |ddv_scf|^2 =  1.556E-07

      iter #   2 total cpu time :  6157.1 secs   av.it.:  12.0
      thresh= 3.945E-05 alpha_mix =  0.700 |ddv_scf|^2 =  1.735E-07

      iter #   3 total cpu time :  6171.0 secs   av.it.:  11.3
      thresh= 4.166E-05 alpha_mix =  0.700 |ddv_scf|^2 =  1.413E-09

      iter #   4 total cpu time :  6184.5 secs   av.it.:  11.4
      thresh= 3.760E-06 alpha_mix =  0.700 |ddv_scf|^2 =  2.868E-11

      iter #   5 total cpu time :  6198.4 secs   av.it.:  11.7
      thresh= 5.355E-07 alpha_mix =  0.700 |ddv_scf|^2 =  3.312E-13

      iter #   6 total cpu time :  6212.3 secs   av.it.:  11.9
      thresh= 5.755E-08 alpha_mix =  0.700 |ddv_scf|^2 =  6.632E-15

      iter #   7 total cpu time :  6225.9 secs   av.it.:  11.9
      thresh= 8.144E-09 alpha_mix =  0.700 |ddv_scf|^2 =  3.440E-16

     End of self-consistent calculation

     Convergence has been achieved 


     Representation #   2 modes #   3   4

     Self-consistent Calculation

      iter #   1 total cpu time :  6234.8 secs   av.it.:   6.4
      thresh= 1.000E-02 alpha_mix =  0.700 |ddv_scf|^2 =  2.822E-07

      iter #   2 total cpu time :  6249.7 secs   av.it.:  12.0
      thresh= 5.312E-05 alpha_mix =  0.700 |ddv_scf|^2 =  3.164E-07

      iter #   3 total cpu time :  6263.1 secs   av.it.:  11.3
      thresh= 5.625E-05 alpha_mix =  0.700 |ddv_scf|^2 =  2.734E-09

      iter #   4 total cpu time :  6276.7 secs   av.it.:  11.4
      thresh= 5.229E-06 alpha_mix =  0.700 |ddv_scf|^2 =  2.854E-11

      iter #   5 total cpu time :  6290.8 secs   av.it.:  11.7
      thresh= 5.342E-07 alpha_mix =  0.700 |ddv_scf|^2 =  6.499E-13

      iter #   6 total cpu time :  6305.7 secs   av.it.:  11.9
      thresh= 8.062E-08 alpha_mix =  0.700 |ddv_scf|^2 =  5.160E-15

      iter #   7 total cpu time :  6319.5 secs   av.it.:  11.9
      thresh= 7.183E-09 alpha_mix =  0.700 |ddv_scf|^2 =  3.236E-16

     End of self-consistent calculation

     Convergence has been achieved 


     Representation #   3 modes #   5   6

     Self-consistent Calculation

      iter #   1 total cpu time :  6328.3 secs   av.it.:   6.5
      thresh= 1.000E-02 alpha_mix =  0.700 |ddv_scf|^2 =  3.737E-07

      iter #   2 total cpu time :  6342.6 secs   av.it.:  11.9
      thresh= 6.113E-05 alpha_mix =  0.700 |ddv_scf|^2 =  4.102E-07

      iter #   3 total cpu time :  6355.7 secs   av.it.:  11.2
      thresh= 6.405E-05 alpha_mix =  0.700 |ddv_scf|^2 =  3.310E-09

      iter #   4 total cpu time :  6369.5 secs   av.it.:  11.4
      thresh= 5.753E-06 alpha_mix =  0.700 |ddv_scf|^2 =  2.248E-11

      iter #   5 total cpu time :  6382.9 secs   av.it.:  11.7
      thresh= 4.741E-07 alpha_mix =  0.700 |ddv_scf|^2 =  2.133E-13

      iter #   6 total cpu time :  6397.1 secs   av.it.:  11.8
      thresh= 4.618E-08 alpha_mix =  0.700 |ddv_scf|^2 =  3.741E-15

      iter #   7 total cpu time :  6410.6 secs   av.it.:  11.7
      thresh= 6.117E-09 alpha_mix =  0.700 |ddv_scf|^2 =  2.249E-16

     End of self-consistent calculation

     Convergence has been achieved 
 
     Number of q in the star =   12
     List of q in the star:
          1  -0.333333333  -1.000000000   0.000000000
          2   0.000000000  -1.000000000  -0.333333333
          3   0.000000000  -1.000000000   0.333333333
          4   0.333333333  -1.000000000   0.000000000
          5  -1.000000000   0.000000000  -0.333333333
          6   1.000000000   0.000000000   0.333333333
          7   0.000000000   0.333333333   1.000000000
          8   0.000000000  -0.333333333  -1.000000000
          9  -1.000000000  -0.333333333   0.000000000
         10   1.000000000   0.333333333   0.000000000
         11  -0.333333333   0.000000000   1.000000000
         12   0.333333333   0.000000000   1.000000000

     Diagonalizing the dynamical matrix

     q = (   -0.333333333  -1.000000000   0.000000000 ) 

 **************************************************************************
     freq (    1) =       5.494064 [THz] =     183.262232 [cm-1]
     freq (    2) =       5.494064 [THz] =     183.262232 [cm-1]
     freq (    3) =      10.966363 [THz] =     365.798493 [cm-1]
     freq (    4) =      10.966363 [THz] =     365.798493 [cm-1]
     freq (    5) =      14.002436 [THz] =     467.070979 [cm-1]
     freq (    6) =      14.002436 [THz] =     467.070979 [cm-1]
 **************************************************************************
 
     init_run     :      0.23s CPU      0.34s WALL (      15 calls)
     electrons    :    283.22s CPU    291.56s WALL (      15 calls)

     Called by init_run:
     wfcinit      :      0.00s CPU      0.06s WALL (      15 calls)
     potinit      :      0.03s CPU      0.04s WALL (      15 calls)
     hinit0       :      0.10s CPU      0.10s WALL (      15 calls)

     Called by electrons:
     c_bands      :    283.22s CPU    291.56s WALL (      15 calls)
     v_of_rho     :      0.01s CPU      0.01s WALL (      16 calls)

     Called by c_bands:
     init_us_2    :      8.36s CPU      8.58s WALL (  247153 calls)
     init_us_2:cp :      7.75s CPU      8.02s WALL (  247153 calls)
     cegterg      :    240.85s CPU    245.03s WALL (    8380 calls)

     Called by *egterg:
     cdiaghg      :      8.17s CPU      8.41s WALL (  115750 calls)
     h_psi        :   4864.17s CPU   4949.84s WALL ( 2468138 calls)
     g_psi        :      0.35s CPU      0.35s WALL (  107370 calls)

     Called by h_psi:
     h_psi:calbec :     98.75s CPU    100.37s WALL ( 2468138 calls)
     vloc_psi     :   4702.62s CPU   4785.57s WALL ( 2468138 calls)
     add_vuspsi   :     41.70s CPU     42.95s WALL ( 2468138 calls)

     General routines
     calbec       :    165.76s CPU    170.30s WALL ( 4955642 calls)
     fft          :      1.27s CPU      1.31s WALL (    3897 calls)
     ffts         :      8.02s CPU      8.19s WALL (   25932 calls)
     fftw         :   5579.50s CPU   5679.62s WALL (20991756 calls)
     davcio       :     10.42s CPU     65.69s WALL ( 1040294 calls)
 
     Parallel routines
 
     PHONON       :      1h43m CPU      1h46m WALL

     INITIALIZATION: 
     phq_setup    :      0.03s CPU      0.08s WALL (      16 calls)
     phq_init     :      3.67s CPU      3.84s WALL (      16 calls)
 
     phq_init     :      3.67s CPU      3.84s WALL (      16 calls)
     set_drhoc    :      0.27s CPU      0.28s WALL (      48 calls)
     init_vloc    :      0.03s CPU      0.03s WALL (      16 calls)
     init_us_1    :      0.03s CPU      0.03s WALL (      16 calls)
     init_us_2    :      8.36s CPU      8.58s WALL (  247153 calls)
 
     DYNAMICAL MATRIX:
     dynmat0      :      2.62s CPU      2.71s WALL (      16 calls)
     phqscf       :   5879.44s CPU   6081.84s WALL (      16 calls)
     dynmatrix    :      0.13s CPU      0.33s WALL (      16 calls)
 
     phqscf       :   5879.44s CPU   6081.84s WALL (      16 calls)
     solve_linter :   5874.18s CPU   6074.71s WALL (      76 calls)
     drhodv       :      5.18s CPU      5.56s WALL (      76 calls)
 
     dynmat0      :      2.62s CPU      2.71s WALL (      16 calls)
     dynmat_us    :      2.42s CPU      2.48s WALL (      16 calls)
     d2ionq       :      0.00s CPU      0.00s WALL (      16 calls)
     dynmatcc     :      0.18s CPU      0.18s WALL (      16 calls)
 
     dynmat_us    :      2.42s CPU      2.48s WALL (      16 calls)
 
     phqscf       :   5879.44s CPU   6081.84s WALL (      16 calls)
     solve_linter :   5874.18s CPU   6074.71s WALL (      76 calls)
 
     solve_linter :   5874.18s CPU   6074.71s WALL (      76 calls)
     dvqpsi_us    :     64.52s CPU     65.69s WALL (   25476 calls)
     sth_kernel   :   5787.49s CPU   5941.79s WALL (     576 calls)
     apply_dpot_b :    365.60s CPU    373.52s WALL (  173573 calls)
     ortho        :      6.85s CPU      7.00s WALL (  199049 calls)
     cgsolve      :   4838.13s CPU   4923.17s WALL (  199049 calls)
     incdrhoscf   :    558.93s CPU    568.35s WALL (  198965 calls)
     dv_of_drho   :      0.67s CPU      0.67s WALL (     702 calls)
     mix_pot      :      3.19s CPU     31.79s WALL (     576 calls)
     psymdvscf    :      8.36s CPU      8.46s WALL (     571 calls)
 
     dvqpsi_us    :     64.52s CPU     65.69s WALL (   25476 calls)
     dvqpsi_us_on :      3.04s CPU      3.10s WALL (   25476 calls)
 
     cgsolve      :   4838.13s CPU   4923.17s WALL (  199049 calls)
     ch_psi       :   4766.35s CPU   4848.98s WALL ( 2344008 calls)
 
     ch_psi       :   4766.35s CPU   4848.98s WALL ( 2344008 calls)
     h_psi        :   4864.17s CPU   4949.84s WALL ( 2468138 calls)
     last         :    136.74s CPU    139.18s WALL ( 2344008 calls)
 
     h_psi        :   4864.17s CPU   4949.84s WALL ( 2468138 calls)
     add_vuspsi   :     41.70s CPU     42.95s WALL ( 2468138 calls)
 
     incdrhoscf   :    558.93s CPU    568.35s WALL (  198965 calls)
 
 
      General routines
     calbec       :    165.76s CPU    170.30s WALL ( 4955642 calls)
     fft          :      1.27s CPU      1.31s WALL (    3897 calls)
     ffts         :      8.02s CPU      8.19s WALL (   25932 calls)
     fftw         :   5579.50s CPU   5679.62s WALL (20991756 calls)
     davcio       :     10.42s CPU     65.69s WALL ( 1040294 calls)
     write_rec    :      0.43s CPU     18.33s WALL (     652 calls)
 
 
     PHONON       :      1h43m CPU      1h46m WALL

 
   This run was terminated on:  23:37:23  26Jun2022            

=------------------------------------------------------------------------------=
   JOB DONE.
=------------------------------------------------------------------------------=
real 6415.60
user 124048.42
sys 2043.83
