Module for intel-oneAPI 2021.4 loaded.
 
:: initializing oneAPI environment ...
   3071192: BASH_VERSION = 4.4.20(1)-release
:: advisor -- latest
:: ccl -- latest
:: clck -- latest
:: compiler -- latest
:: dal -- latest
:: debugger -- latest
:: dev-utilities -- latest
:: dnnl -- latest
:: dpcpp-ct -- latest
:: dpl -- latest
:: inspector -- latest
:: intelpython -- latest
:: ipp -- latest
:: ippcp -- latest
:: ipp -- latest
:: itac -- latest
:: LPOT -- latest
:: mkl -- latest
:: modelzoo -- latest
:: mpi -- latest
:: pytorch -- latest
:: tbb -- latest
:: tensorflow -- latest
:: vpl -- latest
:: vtune -- latest
:: oneAPI environment initialized ::
 

     Program PWSCF v.7.0 starts on 27Jun2022 at 23:19:50 

     This program is part of the open-source Quantum ESPRESSO suite
     for quantum simulation of materials; please cite
         "P. Giannozzi et al., J. Phys.:Condens. Matter 21 395502 (2009);
         "P. Giannozzi et al., J. Phys.:Condens. Matter 29 465901 (2017);
         "P. Giannozzi et al., J. Chem. Phys. 152 154105 (2020);
          URL http://www.quantum-espresso.org", 
     in publications or presentations arising from this work. More details at
     http://www.quantum-espresso.org/quote

     Parallel version (MPI), running on    20 processors

     MPI processes distributed on     1 nodes
     R & G space division:  proc/nbgrp/npool/nimage =      20
     59602 MiB available memory on the printing compute node when the environment starts
 
     Reading input from in_files/silicon_ph_bench_nd_9_n_procs_20_1.scf

     Current dimensions of program PWSCF are:
     Max number of different atomic species (ntypx) = 10
     Max number of k-points (npk) =  40000
     Max angular momentum in pseudopotentials (lmaxx) =  4

     Subspace diagonalization in iterative solution of the eigenvalue problem:
     one sub-group per band group will be used
     scalapack distributed-memory algorithm (size of sub-group:  3*  3 procs)

 
     Parallelization info
     --------------------
     sticks:   dense  smooth     PW     G-vecs:    dense   smooth      PW
     Min          50      50     15                 1043     1043     173
     Max          51      51     16                 1046     1046     176
     Sum        1003    1003    301                20875    20875    3479
 
     Using Slab Decomposition
 


     bravais-lattice index     =            2
     lattice parameter (alat)  =      10.1899  a.u.
     unit-cell volume          =     264.5151 (a.u.)^3
     number of atoms/cell      =            2
     number of atomic types    =            1
     number of electrons       =         8.00
     number of Kohn-Sham states=            4
     kinetic-energy cutoff     =      70.0000  Ry
     charge density cutoff     =     280.0000  Ry
     scf convergence threshold =      1.0E-10
     mixing beta               =       0.7000
     number of iterations used =            8  plain     mixing
     Exchange-correlation= SLA  PW   NOGX NOGC
                           (   1   4   0   0   0   0   0)

     celldm(1)=  10.189905  celldm(2)=   0.000000  celldm(3)=   0.000000
     celldm(4)=   0.000000  celldm(5)=   0.000000  celldm(6)=   0.000000

     crystal axes: (cart. coord. in units of alat)
               a(1) = (  -0.500000   0.000000   0.500000 )  
               a(2) = (   0.000000   0.500000   0.500000 )  
               a(3) = (  -0.500000   0.500000   0.000000 )  

     reciprocal axes: (cart. coord. in units 2 pi/alat)
               b(1) = ( -1.000000 -1.000000  1.000000 )  
               b(2) = (  1.000000  1.000000  1.000000 )  
               b(3) = ( -1.000000  1.000000 -1.000000 )  


     PseudoPot. # 1 for Si read from file:
     ./pseudos/Si.nc.UPF
     MD5 check sum: 9e2d726316af3d4752eea8ab0afbb951
     Pseudo is Norm-conserving + core correction, Zval =  4.0
     Generated using ONCVPSP code by D. R. Hamann
     Using radial grid of 1510 points,  6 beta functions with: 
                l(1) =   0
                l(2) =   0
                l(3) =   1
                l(4) =   1
                l(5) =   2
                l(6) =   2

     atomic species   valence    mass     pseudopotential
        Si             4.00    28.08550     Si( 1.00)

     48 Sym. Ops., with inversion, found (24 have fractional translation)



   Cartesian axes

     site n.     atom                  positions (alat units)
         1           Si  tau(   1) = (   0.0000000   0.0000000   0.0000000  )
         2           Si  tau(   2) = (  -0.2500000   0.2500000   0.2500000  )

     number of k points=    28
                       cart. coord. in units 2pi/alat
        k(    1) = (  -0.0833333   0.0833333   0.0833333), wk =   0.0185185
        k(    2) = (  -0.2500000   0.2500000  -0.0833333), wk =   0.0555556
        k(    3) = (  -0.4166667   0.4166667  -0.2500000), wk =   0.0555556
        k(    4) = (   0.4166667  -0.4166667   0.5833333), wk =   0.0555556
        k(    5) = (   0.2500000  -0.2500000   0.4166667), wk =   0.0555556
        k(    6) = (   0.0833333  -0.0833333   0.2500000), wk =   0.0555556
        k(    7) = (  -0.0833333   0.4166667   0.0833333), wk =   0.0555556
        k(    8) = (  -0.2500000   0.5833333  -0.0833333), wk =   0.1111111
        k(    9) = (   0.5833333  -0.2500000   0.7500000), wk =   0.1111111
        k(   10) = (   0.4166667  -0.0833333   0.5833333), wk =   0.1111111
        k(   11) = (   0.2500000   0.0833333   0.4166667), wk =   0.1111111
        k(   12) = (  -0.0833333   0.7500000   0.0833333), wk =   0.0555556
        k(   13) = (   0.7500000  -0.0833333   0.9166667), wk =   0.1111111
        k(   14) = (   0.5833333   0.0833333   0.7500000), wk =   0.1111111
        k(   15) = (   0.4166667   0.2500000   0.5833333), wk =   0.1111111
        k(   16) = (  -0.0833333  -0.9166667   0.0833333), wk =   0.0555556
        k(   17) = (  -0.2500000  -0.7500000  -0.0833333), wk =   0.1111111
        k(   18) = (  -0.0833333  -0.5833333   0.0833333), wk =   0.0555556
        k(   19) = (  -0.2500000   0.2500000   0.2500000), wk =   0.0185185
        k(   20) = (  -0.4166667   0.4166667   0.0833333), wk =   0.0555556
        k(   21) = (   0.4166667  -0.4166667   0.9166667), wk =   0.0555556
        k(   22) = (   0.2500000  -0.2500000   0.7500000), wk =   0.0555556
        k(   23) = (  -0.2500000   0.5833333   0.2500000), wk =   0.0555556
        k(   24) = (   0.5833333  -0.2500000   1.0833333), wk =   0.1111111
        k(   25) = (   0.4166667  -0.0833333   0.9166667), wk =   0.1111111
        k(   26) = (  -0.2500000  -1.0833333   0.2500000), wk =   0.0555556
        k(   27) = (  -0.4166667   0.4166667   0.4166667), wk =   0.0185185
        k(   28) = (   0.4166667  -0.4166667   1.2500000), wk =   0.0555556

     Dense  grid:    20875 G-vectors     FFT dimensions: (  40,  40,  40)

     Estimated max dynamical RAM per process >       2.33 MB

     Estimated total dynamical RAM >      46.66 MB

     Initial potential from superposition of free atoms

     starting charge       7.9989, renormalised to       8.0000
     Starting wfcs are    8 randomized atomic wfcs

     total cpu time spent up to now is        0.6 secs

     Self-consistent Calculation

     iteration #  1     ecut=    70.00 Ry     beta= 0.70
     Davidson diagonalization with overlap
     ethr =  1.00E-02,  avg # of iterations =  2.0

     Threshold (ethr) on eigenvalues was too large:
     Diagonalizing with lowered threshold

     Davidson diagonalization with overlap
     ethr =  6.11E-04,  avg # of iterations =  2.0

     total cpu time spent up to now is        0.8 secs

     total energy              =     -17.04765872 Ry
     estimated scf accuracy    <       0.05792875 Ry

     iteration #  2     ecut=    70.00 Ry     beta= 0.70
     Davidson diagonalization with overlap
     ethr =  7.24E-04,  avg # of iterations =  1.0

     total cpu time spent up to now is        0.9 secs

     total energy              =     -17.04996404 Ry
     estimated scf accuracy    <       0.00249791 Ry

     iteration #  3     ecut=    70.00 Ry     beta= 0.70
     Davidson diagonalization with overlap
     ethr =  3.12E-05,  avg # of iterations =  3.0

     total cpu time spent up to now is        1.1 secs

     total energy              =     -17.05082629 Ry
     estimated scf accuracy    <       0.00009554 Ry

     iteration #  4     ecut=    70.00 Ry     beta= 0.70
     Davidson diagonalization with overlap
     ethr =  1.19E-06,  avg # of iterations =  4.4

     total cpu time spent up to now is        1.4 secs

     total energy              =     -17.05089822 Ry
     estimated scf accuracy    <       0.00000287 Ry

     iteration #  5     ecut=    70.00 Ry     beta= 0.70
     Davidson diagonalization with overlap
     ethr =  3.58E-08,  avg # of iterations =  4.5

     total cpu time spent up to now is        1.6 secs

     total energy              =     -17.05090100 Ry
     estimated scf accuracy    <       0.00000014 Ry

     iteration #  6     ecut=    70.00 Ry     beta= 0.70
     Davidson diagonalization with overlap
     ethr =  1.78E-09,  avg # of iterations =  3.2

     total cpu time spent up to now is        1.8 secs

     total energy              =     -17.05090106 Ry
     estimated scf accuracy    <       0.00000002 Ry

     iteration #  7     ecut=    70.00 Ry     beta= 0.70
     Davidson diagonalization with overlap
     ethr =  2.03E-10,  avg # of iterations =  2.9

     total cpu time spent up to now is        1.9 secs

     End of self-consistent calculation

          k =-0.0833 0.0833 0.0833 (  2667 PWs)   bands (ev):

    -5.7561   5.3866   6.1106   6.1106

          k =-0.2500 0.2500-0.0833 (  2621 PWs)   bands (ev):

    -5.2692   3.2787   4.8359   5.9020

          k =-0.4167 0.4167-0.2500 (  2618 PWs)   bands (ev):

    -4.1491   0.4558   4.3704   5.2525

          k = 0.4167-0.4167 0.5833 (  2604 PWs)   bands (ev):

    -3.4238  -0.7235   4.4440   4.8612

          k = 0.2500-0.2500 0.4167 (  2618 PWs)   bands (ev):

    -4.5725   1.3222   4.9163   4.9543

          k = 0.0833-0.0833 0.2500 (  2643 PWs)   bands (ev):

    -5.5104   4.3092   5.4447   5.6431

          k =-0.0833 0.4167 0.0833 (  2627 PWs)   bands (ev):

    -5.0231   3.1094   4.6844   4.6977

          k =-0.2500 0.5833-0.0833 (  2613 PWs)   bands (ev):

    -4.0918   1.2428   3.3199   4.3008

          k = 0.5833-0.2500 0.7500 (  2616 PWs)   bands (ev):

    -2.9383  -0.5645   2.7090   4.0652

          k = 0.4167-0.0833 0.5833 (  2617 PWs)   bands (ev):

    -3.6856   0.5301   2.6549   4.5685

          k = 0.2500 0.0833 0.4167 (  2624 PWs)   bands (ev):

    -4.7922   2.2460   4.0374   5.2604

          k =-0.0833 0.7500 0.0833 (  2617 PWs)   bands (ev):

    -3.3664   0.4197   3.2861   3.6484

          k = 0.7500-0.0833 0.9167 (  2608 PWs)   bands (ev):

    -2.1400  -0.9430   2.4039   3.2177

          k = 0.5833 0.0833 0.7500 (  2608 PWs)   bands (ev):

    -2.5099  -0.6178   1.9049   3.7798

          k = 0.4167 0.2500 0.5833 (  2622 PWs)   bands (ev):

    -3.5664  -0.1967   3.6417   4.6731

          k =-0.0833-0.9167 0.0833 (  2604 PWs)   bands (ev):

    -2.2385  -0.9535   3.0091   3.4291

          k =-0.2500-0.7500-0.0833 (  2615 PWs)   bands (ev):

    -3.1914   0.1893   2.7413   3.5675

          k =-0.0833-0.5833 0.0833 (  2620 PWs)   bands (ev):

    -4.3033   1.8032   3.8480   4.0788

          k =-0.2500 0.2500 0.2500 (  2632 PWs)   bands (ev):

    -5.0343   2.2731   5.4857   5.4857

          k =-0.4167 0.4167 0.0833 (  2620 PWs)   bands (ev):

    -4.3392   1.3431   3.2814   5.3165

          k = 0.4167-0.4167 0.9167 (  2613 PWs)   bands (ev):

    -3.1274  -0.1140   2.1362   4.5076

          k = 0.2500-0.2500 0.7500 (  2618 PWs)   bands (ev):

    -3.0761  -0.1941   2.6355   4.0115

          k =-0.2500 0.5833 0.2500 (  2613 PWs)   bands (ev):

    -3.9042   0.5133   3.7736   4.3933

          k = 0.5833-0.2500 1.0833 (  2619 PWs)   bands (ev):

    -2.8765  -0.2149   2.2381   3.5572

          k = 0.4167-0.0833 0.9167 (  2613 PWs)   bands (ev):

    -2.0245  -0.9506   2.0592   2.8637

          k =-0.2500-1.0833 0.2500 (  2605 PWs)   bands (ev):

    -2.2385  -0.8648   1.9290   3.8127

          k =-0.4167 0.4167 0.4167 (  2602 PWs)   bands (ev):

    -3.8074  -0.3119   5.0941   5.0941

          k = 0.4167-0.4167 1.2500 (  2605 PWs)   bands (ev):

    -3.1840  -0.6106   3.2018   4.6388

     highest occupied level (ev):     6.1106

!    total energy              =     -17.05090107 Ry
     estimated scf accuracy    <          8.4E-11 Ry

     The total energy is the sum of the following terms:
     one-electron contribution =       5.01080557 Ry
     hartree contribution      =       1.07710537 Ry
     xc contribution           =      -6.22231072 Ry
     ewald contribution        =     -16.91650128 Ry

     convergence has been achieved in   7 iterations

     Forces acting on atoms (cartesian axes, Ry/au):

     atom    1 type  1   force =     0.00000000    0.00000000    0.00000000
     atom    2 type  1   force =    -0.00000000   -0.00000000   -0.00000000

     Total force =     0.000000     Total SCF correction =     0.000000

     Writing all to output data dir /fastscratch/tsievers/QE_TMP_DIR/silicon_ph_bench_nd_9_n_procs_20_1.save/
 
     init_run     :      0.13s CPU      0.47s WALL (       1 calls)
     electrons    :      1.35s CPU      1.37s WALL (       1 calls)
     forces       :      0.01s CPU      0.01s WALL (       1 calls)

     Called by init_run:
     wfcinit      :      0.10s CPU      0.41s WALL (       1 calls)
     potinit      :      0.00s CPU      0.00s WALL (       1 calls)
     hinit0       :      0.02s CPU      0.05s WALL (       1 calls)

     Called by electrons:
     c_bands      :      1.27s CPU      1.28s WALL (       8 calls)
     sum_band     :      0.07s CPU      0.07s WALL (       8 calls)
     v_of_rho     :      0.00s CPU      0.00s WALL (       8 calls)
     mix_rho      :      0.00s CPU      0.00s WALL (       8 calls)

     Called by c_bands:
     init_us_2    :      0.03s CPU      0.03s WALL (     504 calls)
     init_us_2:cp :      0.02s CPU      0.03s WALL (     504 calls)
     cegterg      :      1.17s CPU      1.18s WALL (     224 calls)

     Called by *egterg:
     cdiaghg      :      0.55s CPU      0.55s WALL (     843 calls)
     h_psi        :      0.46s CPU      0.46s WALL (     899 calls)
     g_psi        :      0.00s CPU      0.00s WALL (     647 calls)

     Called by h_psi:
     h_psi:calbec :      0.03s CPU      0.04s WALL (     899 calls)
     vloc_psi     :      0.40s CPU      0.40s WALL (     899 calls)
     add_vuspsi   :      0.02s CPU      0.02s WALL (     899 calls)

     General routines
     calbec       :      0.04s CPU      0.04s WALL (    1011 calls)
     fft          :      0.01s CPU      0.04s WALL (      28 calls)
     ffts         :      0.00s CPU      0.00s WALL (       8 calls)
     fftw         :      0.42s CPU      0.42s WALL (    7060 calls)
 
     Parallel routines
 
     PWSCF        :      1.55s CPU      2.13s WALL

 
   This run was terminated on:  23:19:52  27Jun2022            

=------------------------------------------------------------------------------=
   JOB DONE.
=------------------------------------------------------------------------------=

     Program PHONON v.7.0 starts on 27Jun2022 at 23:19:54 

     This program is part of the open-source Quantum ESPRESSO suite
     for quantum simulation of materials; please cite
         "P. Giannozzi et al., J. Phys.:Condens. Matter 21 395502 (2009);
         "P. Giannozzi et al., J. Phys.:Condens. Matter 29 465901 (2017);
         "P. Giannozzi et al., J. Chem. Phys. 152 154105 (2020);
          URL http://www.quantum-espresso.org", 
     in publications or presentations arising from this work. More details at
     http://www.quantum-espresso.org/quote

     Parallel version (MPI), running on    20 processors

     MPI processes distributed on     1 nodes
     R & G space division:  proc/nbgrp/npool/nimage =      20
     59590 MiB available memory on the printing compute node when the environment starts
 
     Reading input from in_files/silicon_ph_bench_nd_9_n_procs_20_1.ph
      Title line not specified: using 'default'.

     Reading xml data from directory:

     /fastscratch/tsievers/QE_TMP_DIR/silicon_ph_bench_nd_9_n_procs_20_1.save/

     IMPORTANT: XC functional enforced from input :
     Exchange-correlation= PW
                           (   1   4   0   0   0   0   0)
     Any further DFT definition will be discarded
     Please, verify this is what you really want

 
     Parallelization info
     --------------------
     sticks:   dense  smooth     PW     G-vecs:    dense   smooth      PW
     Min          50      50     15                 1043     1043     173
     Max          51      51     16                 1046     1046     176
     Sum        1003    1003    301                20875    20875    3479
 
     Using Slab Decomposition
 
     Reading collected, re-writing distributed wavefunctions


     Dynamical matrices for ( 6, 6, 6)  uniform grid of q-points
     (  16 q-points):
       N         xq(1)         xq(2)         xq(3) 
       1   0.000000000   0.000000000   0.000000000
       2  -0.166666667   0.166666667  -0.166666667
       3  -0.333333333   0.333333333  -0.333333333
       4   0.500000000  -0.500000000   0.500000000
       5   0.000000000   0.333333333   0.000000000
       6  -0.166666667   0.500000000  -0.166666667
       7   0.666666667  -0.333333333   0.666666667
       8   0.500000000  -0.166666667   0.500000000
       9   0.333333333   0.000000000   0.333333333
      10   0.000000000   0.666666667   0.000000000
      11   0.833333333  -0.166666667   0.833333333
      12   0.666666667  -0.000000000   0.666666667
      13   0.000000000  -1.000000000   0.000000000
      14   0.666666667  -0.333333333   1.000000000
      15   0.500000000  -0.166666667   0.833333333
      16  -0.333333333  -1.000000000   0.000000000

     Calculation of q =    0.0000000   0.0000000   0.0000000

     default                                                                    

     bravais-lattice index     =            2
     lattice parameter (alat)  =      10.1899  a.u.
     unit-cell volume          =     264.5151 (a.u.)^3
     number of atoms/cell      =            2
     number of atomic types    =            1
     kinetic-energy cut-off    =      70.0000  Ry
     charge density cut-off    =     280.0000  Ry
     convergence threshold     =      1.0E-15
     beta                      =       0.7000
     number of iterations used =            4
     Exchange-correlation= PW
                           (   1   4   0   0   0   0   0)


     celldm(1)=   10.18990  celldm(2)=    0.00000  celldm(3)=    0.00000
     celldm(4)=    0.00000  celldm(5)=    0.00000  celldm(6)=    0.00000

     crystal axes: (cart. coord. in units of alat)
               a(1) = ( -0.5000  0.0000  0.5000 )  
               a(2) = (  0.0000  0.5000  0.5000 )  
               a(3) = ( -0.5000  0.5000  0.0000 )  

     reciprocal axes: (cart. coord. in units 2 pi/alat)
               b(1) = ( -1.0000 -1.0000  1.0000 )  
               b(2) = (  1.0000  1.0000  1.0000 )  
               b(3) = ( -1.0000  1.0000 -1.0000 )  


     Atoms inside the unit cell: 

     Cartesian axes

     site n.  atom      mass           positions (alat units)
        1     Si  28.0855   tau(    1) = (    0.00000    0.00000    0.00000  )
        2     Si  28.0855   tau(    2) = (   -0.25000    0.25000    0.25000  )

     Computing dynamical matrix for 
                    q = (   0.0000000   0.0000000   0.0000000 )
 
     49 Sym.Ops. (with q -> -q+G )


     G cutoff =  736.4420  (   1044 G-vectors)     FFT grid: ( 40, 40, 40)
     number of k points=    28

     PseudoPot. # 1 for Si read from file:
     ./pseudos/Si.nc.UPF
     MD5 check sum: 9e2d726316af3d4752eea8ab0afbb951
     Pseudo is Norm-conserving + core correction, Zval =  4.0
     Generated using ONCVPSP code by D. R. Hamann
     Using radial grid of 1510 points,  6 beta functions with: 
                l(1) =   0
                l(2) =   0
                l(3) =   1
                l(4) =   1
                l(5) =   2
                l(6) =   2

     Mode symmetry, O_h (m-3m)  point group:


     Electric field:
     Dielectric constant
     Born effective charges in two ways 


     Atomic displacements:
     There are    2 irreducible representations

     Representation     1      3 modes -  To be done

     Representation     2      3 modes -  To be done



     Alpha used in Ewald sum =   2.8000
     PHONON       :      0.19s CPU      0.41s WALL


     Electric Fields Calculation

      iter #   1 total cpu time :     2.1 secs   av.it.:   6.5
      thresh= 1.000E-02 alpha_mix =  0.700 |ddv_scf|^2 =  1.151E-07

      iter #   2 total cpu time :     3.1 secs   av.it.:  11.6
      thresh= 3.392E-05 alpha_mix =  0.700 |ddv_scf|^2 =  4.931E-09

      iter #   3 total cpu time :     4.1 secs   av.it.:  11.5
      thresh= 7.022E-06 alpha_mix =  0.700 |ddv_scf|^2 =  5.558E-11

      iter #   4 total cpu time :     5.1 secs   av.it.:  11.8
      thresh= 7.455E-07 alpha_mix =  0.700 |ddv_scf|^2 =  3.297E-13

      iter #   5 total cpu time :     6.0 secs   av.it.:  10.9
      thresh= 5.742E-08 alpha_mix =  0.700 |ddv_scf|^2 =  1.210E-16

     End of electric fields calculation

          Dielectric constant in cartesian axis 

          (      13.312196911      -0.000000000       0.000000000 )
          (      -0.000000000      13.312196911      -0.000000000 )
          (       0.000000000      -0.000000000      13.312196911 )

          Effective charges (d Force / dE) in cartesian axis without acoustic sum rule applied (asr)

           atom      1   Si Mean Z*:       -0.00678
      Ex  (       -0.00678        0.00000        0.00000 )
      Ey  (        0.00000       -0.00678       -0.00000 )
      Ez  (        0.00000       -0.00000       -0.00678 )
           atom      2   Si Mean Z*:       -0.00678
      Ex  (       -0.00678       -0.00000        0.00000 )
      Ey  (       -0.00000       -0.00678        0.00000 )
      Ez  (        0.00000        0.00000       -0.00678 )

          Effective charges Sum: Mean:       -0.01357
             -0.01357       -0.00000        0.00000
             -0.00000       -0.01357        0.00000
              0.00000       -0.00000       -0.01357

          Effective charges (d Force / dE) in cartesian axis with asr applied: 
           atom      1   Si Mean Z*:        0.00000
      E*x (        0.00000        0.00000        0.00000 )
      E*y (        0.00000        0.00000       -0.00000 )
      E*z (        0.00000       -0.00000        0.00000 )
           atom      2   Si Mean Z*:       -0.00000
      E*x (       -0.00000       -0.00000       -0.00000 )
      E*y (       -0.00000       -0.00000        0.00000 )
      E*z (       -0.00000        0.00000       -0.00000 )


     Representation #   1 modes #   1   2   3

     Self-consistent Calculation

      iter #   1 total cpu time :     6.9 secs   av.it.:   5.8
      thresh= 1.000E-02 alpha_mix =  0.700 |ddv_scf|^2 =  1.659E-08

      iter #   2 total cpu time :     8.0 secs   av.it.:  11.6
      thresh= 1.288E-05 alpha_mix =  0.700 |ddv_scf|^2 =  3.727E-10

      iter #   3 total cpu time :     9.0 secs   av.it.:  11.6
      thresh= 1.931E-06 alpha_mix =  0.700 |ddv_scf|^2 =  1.391E-11

      iter #   4 total cpu time :    10.1 secs   av.it.:  11.4
      thresh= 3.730E-07 alpha_mix =  0.700 |ddv_scf|^2 =  4.505E-14

      iter #   5 total cpu time :    11.1 secs   av.it.:  11.7
      thresh= 2.123E-08 alpha_mix =  0.700 |ddv_scf|^2 =  2.091E-16

     End of self-consistent calculation

     Convergence has been achieved 


     Representation #   2 modes #   4   5   6

     Self-consistent Calculation

      iter #   1 total cpu time :    11.9 secs   av.it.:   6.0
      thresh= 1.000E-02 alpha_mix =  0.700 |ddv_scf|^2 =  1.197E-08

      iter #   2 total cpu time :    13.0 secs   av.it.:  11.8
      thresh= 1.094E-05 alpha_mix =  0.700 |ddv_scf|^2 =  4.303E-10

      iter #   3 total cpu time :    14.0 secs   av.it.:  11.8
      thresh= 2.074E-06 alpha_mix =  0.700 |ddv_scf|^2 =  1.959E-11

      iter #   4 total cpu time :    15.1 secs   av.it.:  11.7
      thresh= 4.427E-07 alpha_mix =  0.700 |ddv_scf|^2 =  3.509E-14

      iter #   5 total cpu time :    16.3 secs   av.it.:  11.8
      thresh= 1.873E-08 alpha_mix =  0.700 |ddv_scf|^2 =  9.549E-17

     End of self-consistent calculation

     Convergence has been achieved 
 
     Number of q in the star =    1
     List of q in the star:
          1   0.000000000   0.000000000   0.000000000

          Dielectric constant in cartesian axis 

          (      13.312196911      -0.000000000       0.000000000 )
          (      -0.000000000      13.312196911      -0.000000000 )
          (       0.000000000      -0.000000000      13.312196911 )

          Effective charges (d Force / dE) in cartesian axis without acoustic sum rule applied (asr)

           atom      1   Si Mean Z*:       -0.00678
      Ex  (       -0.00678        0.00000        0.00000 )
      Ey  (        0.00000       -0.00678       -0.00000 )
      Ez  (        0.00000       -0.00000       -0.00678 )
           atom      2   Si Mean Z*:       -0.00678
      Ex  (       -0.00678       -0.00000        0.00000 )
      Ey  (       -0.00000       -0.00678        0.00000 )
      Ez  (        0.00000        0.00000       -0.00678 )

          Effective charges Sum: Mean:       -0.01357
             -0.01357       -0.00000        0.00000
             -0.00000       -0.01357        0.00000
              0.00000       -0.00000       -0.01357

          Effective charges (d Force / dE) in cartesian axis with asr applied: 
           atom      1   Si Mean Z*:        0.00000
      E*x (        0.00000        0.00000        0.00000 )
      E*y (        0.00000        0.00000       -0.00000 )
      E*z (        0.00000       -0.00000        0.00000 )
           atom      2   Si Mean Z*:       -0.00000
      E*x (       -0.00000       -0.00000       -0.00000 )
      E*y (       -0.00000       -0.00000        0.00000 )
      E*z (       -0.00000        0.00000       -0.00000 )

          Effective charges (d P / du) in cartesian axis 

           atom      1   Si 
      Px  (       -0.00685       -0.00000        0.00000 )
      Py  (       -0.00000       -0.00685       -0.00000 )
      Pz  (        0.00000        0.00000       -0.00685 )
           atom      2   Si 
      Px  (       -0.00685       -0.00000       -0.00000 )
      Py  (       -0.00000       -0.00685        0.00000 )
      Pz  (       -0.00000        0.00000       -0.00685 )

     Diagonalizing the dynamical matrix

     q = (    0.000000000   0.000000000   0.000000000 ) 

 **************************************************************************
     freq (    1) =      -0.118072 [THz] =      -3.938467 [cm-1]
     freq (    2) =      -0.118072 [THz] =      -3.938467 [cm-1]
     freq (    3) =      -0.118072 [THz] =      -3.938467 [cm-1]
     freq (    4) =      15.412085 [THz] =     514.091804 [cm-1]
     freq (    5) =      15.412085 [THz] =     514.091804 [cm-1]
     freq (    6) =      15.412085 [THz] =     514.091804 [cm-1]
 **************************************************************************

     Mode symmetry, O_h (m-3m)  point group:

     freq (   1-   3) =         -3.9  [cm-1]   --> T_1u G_15  G_4- I  
     freq (   4-   6) =        514.1  [cm-1]   --> T_2g G_25' G_5+ R  

     Calculation of q =   -0.1666667   0.1666667  -0.1666667

     Subspace diagonalization in iterative solution of the eigenvalue problem:
     one sub-group per band group will be used
     scalapack distributed-memory algorithm (size of sub-group:  3*  3 procs)

 
     Parallelization info
     --------------------
     sticks:   dense  smooth     PW     G-vecs:    dense   smooth      PW
     Min          50      50     15                 1043     1043     183
     Max          51      51     16                 1046     1046     187
     Sum        1003    1003    313                20875    20875    3695
 
     Using Slab Decomposition
 

     Title: 
     default                                                                    


     bravais-lattice index     =            2
     lattice parameter (alat)  =      10.1899  a.u.
     unit-cell volume          =     264.5151 (a.u.)^3
     number of atoms/cell      =            2
     number of atomic types    =            1
     number of electrons       =         8.00
     number of Kohn-Sham states=            4
     kinetic-energy cutoff     =      70.0000  Ry
     charge density cutoff     =     280.0000  Ry
     Exchange-correlation= PW
                           (   1   4   0   0   0   0   0)

     celldm(1)=  10.189905  celldm(2)=   0.000000  celldm(3)=   0.000000
     celldm(4)=   0.000000  celldm(5)=   0.000000  celldm(6)=   0.000000

     crystal axes: (cart. coord. in units of alat)
               a(1) = (  -0.500000   0.000000   0.500000 )  
               a(2) = (   0.000000   0.500000   0.500000 )  
               a(3) = (  -0.500000   0.500000   0.000000 )  

     reciprocal axes: (cart. coord. in units 2 pi/alat)
               b(1) = ( -1.000000 -1.000000  1.000000 )  
               b(2) = (  1.000000  1.000000  1.000000 )  
               b(3) = ( -1.000000  1.000000 -1.000000 )  


     PseudoPot. # 1 for Si read from file:
     ./pseudos/Si.nc.UPF
     MD5 check sum: 9e2d726316af3d4752eea8ab0afbb951
     Pseudo is Norm-conserving + core correction, Zval =  4.0
     Generated using ONCVPSP code by D. R. Hamann
     Using radial grid of 1510 points,  6 beta functions with: 
                l(1) =   0
                l(2) =   0
                l(3) =   1
                l(4) =   1
                l(5) =   2
                l(6) =   2

     atomic species   valence    mass     pseudopotential
        Si             4.00    28.08550     Si( 1.00)

     48 Sym. Ops., with inversion, found



   Cartesian axes

     site n.     atom                  positions (alat units)
         1           Si  tau(   1) = (   0.0000000   0.0000000   0.0000000  )
         2           Si  tau(   2) = (  -0.2500000   0.2500000   0.2500000  )

     number of k points=   364

     Number of k-points >= 100: set verbosity='high' to print them.

     Dense  grid:    20875 G-vectors     FFT dimensions: (  40,  40,  40)

     Estimated max dynamical RAM per process >       1.86 MB

     Estimated total dynamical RAM >      37.29 MB

     The potential is recalculated from file :
     /fastscratch/tsievers/QE_TMP_DIR/_ph0/silicon_ph_bench_nd_9_n_procs_20_1.save/charge-density

     Starting wfcs are    8 atomic wfcs

     Band Structure Calculation
     Davidson diagonalization with overlap

     ethr =  1.25E-10,  avg # of iterations = 12.9

     total cpu time spent up to now is        9.4 secs

     End of band structure calculation

     Number of k-points >= 100: set verbosity='high' to print the bands.

     highest occupied level (ev):     6.1106

     Writing config to output data dir /fastscratch/tsievers/QE_TMP_DIR/_ph0/silicon_ph_bench_nd_9_n_procs_20_1.save/

     default                                                                    

     bravais-lattice index     =            2
     lattice parameter (alat)  =      10.1899  a.u.
     unit-cell volume          =     264.5151 (a.u.)^3
     number of atoms/cell      =            2
     number of atomic types    =            1
     kinetic-energy cut-off    =      70.0000  Ry
     charge density cut-off    =     280.0000  Ry
     convergence threshold     =      1.0E-15
     beta                      =       0.7000
     number of iterations used =            4
     Exchange-correlation= PW
                           (   1   4   0   0   0   0   0)


     celldm(1)=   10.18990  celldm(2)=    0.00000  celldm(3)=    0.00000
     celldm(4)=    0.00000  celldm(5)=    0.00000  celldm(6)=    0.00000

     crystal axes: (cart. coord. in units of alat)
               a(1) = ( -0.5000  0.0000  0.5000 )  
               a(2) = (  0.0000  0.5000  0.5000 )  
               a(3) = ( -0.5000  0.5000  0.0000 )  

     reciprocal axes: (cart. coord. in units 2 pi/alat)
               b(1) = ( -1.0000 -1.0000  1.0000 )  
               b(2) = (  1.0000  1.0000  1.0000 )  
               b(3) = ( -1.0000  1.0000 -1.0000 )  


     Atoms inside the unit cell: 

     Cartesian axes

     site n.  atom      mass           positions (alat units)
        1     Si  28.0855   tau(    1) = (    0.00000    0.00000    0.00000  )
        2     Si  28.0855   tau(    2) = (   -0.25000    0.25000    0.25000  )

     Computing dynamical matrix for 
                    q = (  -0.1666667   0.1666667  -0.1666667 )
 
      6 Sym.Ops. (no q -> -q+G )


     G cutoff =  736.4420  (   1044 G-vectors)     FFT grid: ( 40, 40, 40)
     number of k points=   364

     PseudoPot. # 1 for Si read from file:
     ./pseudos/Si.nc.UPF
     MD5 check sum: 9e2d726316af3d4752eea8ab0afbb951
     Pseudo is Norm-conserving + core correction, Zval =  4.0
     Generated using ONCVPSP code by D. R. Hamann
     Using radial grid of 1510 points,  6 beta functions with: 
                l(1) =   0
                l(2) =   0
                l(3) =   1
                l(4) =   1
                l(5) =   2
                l(6) =   2

     Mode symmetry, C_3v (3m)   point group:


     Atomic displacements:
     There are    4 irreducible representations

     Representation     1      1 modes -  To be done

     Representation     2      1 modes -  To be done

     Representation     3      2 modes -  To be done

     Representation     4      2 modes -  To be done



     Alpha used in Ewald sum =   2.8000
     PHONON       :     23.09s CPU     27.11s WALL



     Representation #   1 mode #   1

     Self-consistent Calculation

      iter #   1 total cpu time :    28.2 secs   av.it.:   6.6
      thresh= 1.000E-02 alpha_mix =  0.700 |ddv_scf|^2 =  1.552E-03

      iter #   2 total cpu time :    29.5 secs   av.it.:   8.8
      thresh= 3.939E-03 alpha_mix =  0.700 |ddv_scf|^2 =  5.085E-02

      iter #   3 total cpu time :    30.7 secs   av.it.:   7.6
      thresh= 1.000E-02 alpha_mix =  0.700 |ddv_scf|^2 =  4.141E-07

      iter #   4 total cpu time :    32.0 secs   av.it.:   9.1
      thresh= 6.435E-05 alpha_mix =  0.700 |ddv_scf|^2 =  1.354E-08

      iter #   5 total cpu time :    33.4 secs   av.it.:   9.4
      thresh= 1.164E-05 alpha_mix =  0.700 |ddv_scf|^2 =  9.317E-10

      iter #   6 total cpu time :    34.7 secs   av.it.:   8.2
      thresh= 3.052E-06 alpha_mix =  0.700 |ddv_scf|^2 =  1.582E-09

      iter #   7 total cpu time :    35.9 secs   av.it.:   8.0
      thresh= 3.977E-06 alpha_mix =  0.700 |ddv_scf|^2 =  9.315E-11

      iter #   8 total cpu time :    37.2 secs   av.it.:   8.4
      thresh= 9.651E-07 alpha_mix =  0.700 |ddv_scf|^2 =  7.457E-13

      iter #   9 total cpu time :    38.5 secs   av.it.:   8.2
      thresh= 8.636E-08 alpha_mix =  0.700 |ddv_scf|^2 =  1.664E-14

      iter #  10 total cpu time :    39.8 secs   av.it.:   8.5
      thresh= 1.290E-08 alpha_mix =  0.700 |ddv_scf|^2 =  1.571E-15

      iter #  11 total cpu time :    41.1 secs   av.it.:   9.0
      thresh= 3.964E-09 alpha_mix =  0.700 |ddv_scf|^2 =  2.338E-16

     End of self-consistent calculation

     Convergence has been achieved 


     Representation #   2 mode #   2

     Self-consistent Calculation

      iter #   1 total cpu time :    42.3 secs   av.it.:   6.6
      thresh= 1.000E-02 alpha_mix =  0.700 |ddv_scf|^2 =  1.552E-03

      iter #   2 total cpu time :    43.6 secs   av.it.:   8.8
      thresh= 3.939E-03 alpha_mix =  0.700 |ddv_scf|^2 =  5.085E-02

      iter #   3 total cpu time :    44.9 secs   av.it.:   7.6
      thresh= 1.000E-02 alpha_mix =  0.700 |ddv_scf|^2 =  4.141E-07

      iter #   4 total cpu time :    46.2 secs   av.it.:   9.1
      thresh= 6.435E-05 alpha_mix =  0.700 |ddv_scf|^2 =  1.354E-08

      iter #   5 total cpu time :    47.6 secs   av.it.:   9.4
      thresh= 1.164E-05 alpha_mix =  0.700 |ddv_scf|^2 =  9.317E-10

      iter #   6 total cpu time :    48.8 secs   av.it.:   8.3
      thresh= 3.052E-06 alpha_mix =  0.700 |ddv_scf|^2 =  1.582E-09

      iter #   7 total cpu time :    50.0 secs   av.it.:   8.0
      thresh= 3.977E-06 alpha_mix =  0.700 |ddv_scf|^2 =  9.315E-11

      iter #   8 total cpu time :    51.4 secs   av.it.:   8.4
      thresh= 9.652E-07 alpha_mix =  0.700 |ddv_scf|^2 =  7.458E-13

      iter #   9 total cpu time :    52.7 secs   av.it.:   8.2
      thresh= 8.636E-08 alpha_mix =  0.700 |ddv_scf|^2 =  1.664E-14

      iter #  10 total cpu time :    54.0 secs   av.it.:   8.5
      thresh= 1.290E-08 alpha_mix =  0.700 |ddv_scf|^2 =  1.571E-15

      iter #  11 total cpu time :    55.3 secs   av.it.:   9.0
      thresh= 3.964E-09 alpha_mix =  0.700 |ddv_scf|^2 =  2.338E-16

     End of self-consistent calculation

     Convergence has been achieved 


     Representation #   3 modes #   3   4

     Self-consistent Calculation

      iter #   1 total cpu time :    57.5 secs   av.it.:   6.1
      thresh= 1.000E-02 alpha_mix =  0.700 |ddv_scf|^2 =  4.048E-08

      iter #   2 total cpu time :    61.8 secs   av.it.:  11.4
      thresh= 2.012E-05 alpha_mix =  0.700 |ddv_scf|^2 =  1.801E-09

      iter #   3 total cpu time :    65.0 secs   av.it.:  11.3
      thresh= 4.244E-06 alpha_mix =  0.700 |ddv_scf|^2 =  4.704E-11

      iter #   4 total cpu time :    68.2 secs   av.it.:  11.3
      thresh= 6.859E-07 alpha_mix =  0.700 |ddv_scf|^2 =  5.427E-13

      iter #   5 total cpu time :    71.3 secs   av.it.:  11.3
      thresh= 7.367E-08 alpha_mix =  0.700 |ddv_scf|^2 =  1.152E-14

      iter #   6 total cpu time :    74.5 secs   av.it.:  11.6
      thresh= 1.073E-08 alpha_mix =  0.700 |ddv_scf|^2 =  5.228E-17

     End of self-consistent calculation

     Convergence has been achieved 


     Representation #   4 modes #   5   6

     Self-consistent Calculation

      iter #   1 total cpu time :    76.6 secs   av.it.:   6.0
      thresh= 1.000E-02 alpha_mix =  0.700 |ddv_scf|^2 =  4.048E-08

      iter #   2 total cpu time :    79.7 secs   av.it.:  11.3
      thresh= 2.012E-05 alpha_mix =  0.700 |ddv_scf|^2 =  1.802E-09

      iter #   3 total cpu time :    83.2 secs   av.it.:  11.3
      thresh= 4.245E-06 alpha_mix =  0.700 |ddv_scf|^2 =  4.704E-11

      iter #   4 total cpu time :    86.3 secs   av.it.:  11.3
      thresh= 6.859E-07 alpha_mix =  0.700 |ddv_scf|^2 =  5.429E-13

      iter #   5 total cpu time :    90.2 secs   av.it.:  11.3
      thresh= 7.368E-08 alpha_mix =  0.700 |ddv_scf|^2 =  1.153E-14

      iter #   6 total cpu time :    93.4 secs   av.it.:  11.6
      thresh= 1.074E-08 alpha_mix =  0.700 |ddv_scf|^2 =  5.226E-17

     End of self-consistent calculation

     Convergence has been achieved 
 
     Number of q in the star =    8
     List of q in the star:
          1  -0.166666667   0.166666667  -0.166666667
          2   0.166666667   0.166666667   0.166666667
          3  -0.166666667  -0.166666667  -0.166666667
          4   0.166666667  -0.166666667   0.166666667
          5   0.166666667  -0.166666667  -0.166666667
          6   0.166666667   0.166666667  -0.166666667
          7  -0.166666667  -0.166666667   0.166666667
          8  -0.166666667   0.166666667   0.166666667

     Diagonalizing the dynamical matrix

     q = (   -0.166666667   0.166666667  -0.166666667 ) 

 **************************************************************************
     freq (    1) =       2.202718 [THz] =      73.474775 [cm-1]
     freq (    2) =       2.202718 [THz] =      73.474775 [cm-1]
     freq (    3) =       4.748075 [THz] =     158.378733 [cm-1]
     freq (    4) =      15.023905 [THz] =     501.143524 [cm-1]
     freq (    5) =      15.065884 [THz] =     502.543806 [cm-1]
     freq (    6) =      15.065884 [THz] =     502.543806 [cm-1]
 **************************************************************************

     Mode symmetry, C_3v (3m)   point group:

     freq (   1-   2) =         73.5  [cm-1]   --> E    L_3           
     freq (   3-   3) =        158.4  [cm-1]   --> A_1  L_1           
     freq (   4-   4) =        501.1  [cm-1]   --> A_1  L_1           
     freq (   5-   6) =        502.5  [cm-1]   --> E    L_3           

     Calculation of q =   -0.3333333   0.3333333  -0.3333333
 
     Parallelization info
     --------------------
     sticks:   dense  smooth     PW     G-vecs:    dense   smooth      PW
     Min          50      50     15                 1043     1043     189
     Max          51      51     16                 1046     1046     194
     Sum        1003    1003    313                20875    20875    3839
 
     Using Slab Decomposition
 

     Title: 
     default                                                                    


     bravais-lattice index     =            2
     lattice parameter (alat)  =      10.1899  a.u.
     unit-cell volume          =     264.5151 (a.u.)^3
     number of atoms/cell      =            2
     number of atomic types    =            1
     number of electrons       =         8.00
     number of Kohn-Sham states=            4
     kinetic-energy cutoff     =      70.0000  Ry
     charge density cutoff     =     280.0000  Ry
     Exchange-correlation= PW
                           (   1   4   0   0   0   0   0)

     celldm(1)=  10.189905  celldm(2)=   0.000000  celldm(3)=   0.000000
     celldm(4)=   0.000000  celldm(5)=   0.000000  celldm(6)=   0.000000

     crystal axes: (cart. coord. in units of alat)
               a(1) = (  -0.500000   0.000000   0.500000 )  
               a(2) = (   0.000000   0.500000   0.500000 )  
               a(3) = (  -0.500000   0.500000   0.000000 )  

     reciprocal axes: (cart. coord. in units 2 pi/alat)
               b(1) = ( -1.000000 -1.000000  1.000000 )  
               b(2) = (  1.000000  1.000000  1.000000 )  
               b(3) = ( -1.000000  1.000000 -1.000000 )  


     PseudoPot. # 1 for Si read from file:
     ./pseudos/Si.nc.UPF
     MD5 check sum: 9e2d726316af3d4752eea8ab0afbb951
     Pseudo is Norm-conserving + core correction, Zval =  4.0
     Generated using ONCVPSP code by D. R. Hamann
     Using radial grid of 1510 points,  6 beta functions with: 
                l(1) =   0
                l(2) =   0
                l(3) =   1
                l(4) =   1
                l(5) =   2
                l(6) =   2

     atomic species   valence    mass     pseudopotential
        Si             4.00    28.08550     Si( 1.00)

     48 Sym. Ops., with inversion, found



   Cartesian axes

     site n.     atom                  positions (alat units)
         1           Si  tau(   1) = (   0.0000000   0.0000000   0.0000000  )
         2           Si  tau(   2) = (  -0.2500000   0.2500000   0.2500000  )

     number of k points=   364

     Number of k-points >= 100: set verbosity='high' to print them.

     Dense  grid:    20875 G-vectors     FFT dimensions: (  40,  40,  40)

     Estimated max dynamical RAM per process >       1.88 MB

     Estimated total dynamical RAM >      37.56 MB

     The potential is recalculated from file :
     /fastscratch/tsievers/QE_TMP_DIR/_ph0/silicon_ph_bench_nd_9_n_procs_20_1.save/charge-density

     Starting wfcs are    8 atomic wfcs

     Band Structure Calculation
     Davidson diagonalization with overlap

     ethr =  1.25E-10,  avg # of iterations = 12.9

     total cpu time spent up to now is       19.4 secs

     End of band structure calculation

     Number of k-points >= 100: set verbosity='high' to print the bands.

     highest occupied level (ev):     6.1106

     Writing config to output data dir /fastscratch/tsievers/QE_TMP_DIR/_ph0/silicon_ph_bench_nd_9_n_procs_20_1.save/

     default                                                                    

     bravais-lattice index     =            2
     lattice parameter (alat)  =      10.1899  a.u.
     unit-cell volume          =     264.5151 (a.u.)^3
     number of atoms/cell      =            2
     number of atomic types    =            1
     kinetic-energy cut-off    =      70.0000  Ry
     charge density cut-off    =     280.0000  Ry
     convergence threshold     =      1.0E-15
     beta                      =       0.7000
     number of iterations used =            4
     Exchange-correlation= PW
                           (   1   4   0   0   0   0   0)


     celldm(1)=   10.18990  celldm(2)=    0.00000  celldm(3)=    0.00000
     celldm(4)=    0.00000  celldm(5)=    0.00000  celldm(6)=    0.00000

     crystal axes: (cart. coord. in units of alat)
               a(1) = ( -0.5000  0.0000  0.5000 )  
               a(2) = (  0.0000  0.5000  0.5000 )  
               a(3) = ( -0.5000  0.5000  0.0000 )  

     reciprocal axes: (cart. coord. in units 2 pi/alat)
               b(1) = ( -1.0000 -1.0000  1.0000 )  
               b(2) = (  1.0000  1.0000  1.0000 )  
               b(3) = ( -1.0000  1.0000 -1.0000 )  


     Atoms inside the unit cell: 

     Cartesian axes

     site n.  atom      mass           positions (alat units)
        1     Si  28.0855   tau(    1) = (    0.00000    0.00000    0.00000  )
        2     Si  28.0855   tau(    2) = (   -0.25000    0.25000    0.25000  )

     Computing dynamical matrix for 
                    q = (  -0.3333333   0.3333333  -0.3333333 )
 
      6 Sym.Ops. (no q -> -q+G )


     G cutoff =  736.4420  (   1044 G-vectors)     FFT grid: ( 40, 40, 40)
     number of k points=   364

     PseudoPot. # 1 for Si read from file:
     ./pseudos/Si.nc.UPF
     MD5 check sum: 9e2d726316af3d4752eea8ab0afbb951
     Pseudo is Norm-conserving + core correction, Zval =  4.0
     Generated using ONCVPSP code by D. R. Hamann
     Using radial grid of 1510 points,  6 beta functions with: 
                l(1) =   0
                l(2) =   0
                l(3) =   1
                l(4) =   1
                l(5) =   2
                l(6) =   2

     Mode symmetry, C_3v (3m)   point group:


     Atomic displacements:
     There are    4 irreducible representations

     Representation     1      1 modes -  To be done

     Representation     2      1 modes -  To be done

     Representation     3      2 modes -  To be done

     Representation     4      2 modes -  To be done



     Alpha used in Ewald sum =   2.8000
     PHONON       :   1m32.41s CPU   1m44.37s WALL



     Representation #   1 mode #   1

     Self-consistent Calculation

      iter #   1 total cpu time :   105.4 secs   av.it.:   6.5
      thresh= 1.000E-02 alpha_mix =  0.700 |ddv_scf|^2 =  9.826E-05

      iter #   2 total cpu time :   106.8 secs   av.it.:   9.7
      thresh= 9.913E-04 alpha_mix =  0.700 |ddv_scf|^2 =  7.842E-04

      iter #   3 total cpu time :   108.1 secs   av.it.:   8.3
      thresh= 2.800E-03 alpha_mix =  0.700 |ddv_scf|^2 =  1.443E-07

      iter #   4 total cpu time :   109.5 secs   av.it.:   9.8
      thresh= 3.799E-05 alpha_mix =  0.700 |ddv_scf|^2 =  2.930E-09

      iter #   5 total cpu time :   110.9 secs   av.it.:   9.9
      thresh= 5.413E-06 alpha_mix =  0.700 |ddv_scf|^2 =  3.098E-11

      iter #   6 total cpu time :   112.4 secs   av.it.:  10.4
      thresh= 5.566E-07 alpha_mix =  0.700 |ddv_scf|^2 =  3.099E-12

      iter #   7 total cpu time :   114.0 secs   av.it.:  10.3
      thresh= 1.761E-07 alpha_mix =  0.700 |ddv_scf|^2 =  1.883E-12

      iter #   8 total cpu time :   115.5 secs   av.it.:   9.5
      thresh= 1.372E-07 alpha_mix =  0.700 |ddv_scf|^2 =  2.426E-12

      iter #   9 total cpu time :   116.9 secs   av.it.:   8.9
      thresh= 1.558E-07 alpha_mix =  0.700 |ddv_scf|^2 =  2.864E-13

      iter #  10 total cpu time :   118.2 secs   av.it.:   8.9
      thresh= 5.352E-08 alpha_mix =  0.700 |ddv_scf|^2 =  1.580E-15

      iter #  11 total cpu time :   119.6 secs   av.it.:   9.6
      thresh= 3.975E-09 alpha_mix =  0.700 |ddv_scf|^2 =  1.562E-16

     End of self-consistent calculation

     Convergence has been achieved 


     Representation #   2 mode #   2

     Self-consistent Calculation

      iter #   1 total cpu time :   120.7 secs   av.it.:   6.5
      thresh= 1.000E-02 alpha_mix =  0.700 |ddv_scf|^2 =  9.826E-05

      iter #   2 total cpu time :   122.1 secs   av.it.:   9.7
      thresh= 9.913E-04 alpha_mix =  0.700 |ddv_scf|^2 =  7.842E-04

      iter #   3 total cpu time :   123.4 secs   av.it.:   8.3
      thresh= 2.800E-03 alpha_mix =  0.700 |ddv_scf|^2 =  1.443E-07

      iter #   4 total cpu time :   124.8 secs   av.it.:   9.8
      thresh= 3.799E-05 alpha_mix =  0.700 |ddv_scf|^2 =  2.930E-09

      iter #   5 total cpu time :   126.2 secs   av.it.:   9.9
      thresh= 5.413E-06 alpha_mix =  0.700 |ddv_scf|^2 =  3.098E-11

      iter #   6 total cpu time :   127.7 secs   av.it.:  10.4
      thresh= 5.566E-07 alpha_mix =  0.700 |ddv_scf|^2 =  3.099E-12

      iter #   7 total cpu time :   129.2 secs   av.it.:  10.3
      thresh= 1.760E-07 alpha_mix =  0.700 |ddv_scf|^2 =  1.883E-12

      iter #   8 total cpu time :   130.6 secs   av.it.:   9.5
      thresh= 1.372E-07 alpha_mix =  0.700 |ddv_scf|^2 =  2.426E-12

      iter #   9 total cpu time :   132.1 secs   av.it.:   9.0
      thresh= 1.558E-07 alpha_mix =  0.700 |ddv_scf|^2 =  2.864E-13

      iter #  10 total cpu time :   133.4 secs   av.it.:   8.9
      thresh= 5.351E-08 alpha_mix =  0.700 |ddv_scf|^2 =  1.579E-15

      iter #  11 total cpu time :   134.7 secs   av.it.:   9.6
      thresh= 3.974E-09 alpha_mix =  0.700 |ddv_scf|^2 =  1.562E-16

     End of self-consistent calculation

     Convergence has been achieved 


     Representation #   3 modes #   3   4

     Self-consistent Calculation

      iter #   1 total cpu time :   137.7 secs   av.it.:   6.1
      thresh= 1.000E-02 alpha_mix =  0.700 |ddv_scf|^2 =  5.514E-08

      iter #   2 total cpu time :   141.6 secs   av.it.:  11.4
      thresh= 2.348E-05 alpha_mix =  0.700 |ddv_scf|^2 =  3.820E-09

      iter #   3 total cpu time :   144.8 secs   av.it.:  11.2
      thresh= 6.180E-06 alpha_mix =  0.700 |ddv_scf|^2 =  5.530E-11

      iter #   4 total cpu time :   148.0 secs   av.it.:  11.4
      thresh= 7.436E-07 alpha_mix =  0.700 |ddv_scf|^2 =  5.546E-13

      iter #   5 total cpu time :   151.1 secs   av.it.:  11.3
      thresh= 7.447E-08 alpha_mix =  0.700 |ddv_scf|^2 =  1.080E-14

      iter #   6 total cpu time :   154.3 secs   av.it.:  11.5
      thresh= 1.039E-08 alpha_mix =  0.700 |ddv_scf|^2 =  7.354E-17

     End of self-consistent calculation

     Convergence has been achieved 


     Representation #   4 modes #   5   6

     Self-consistent Calculation

      iter #   1 total cpu time :   156.4 secs   av.it.:   6.1
      thresh= 1.000E-02 alpha_mix =  0.700 |ddv_scf|^2 =  5.515E-08

      iter #   2 total cpu time :   159.6 secs   av.it.:  11.3
      thresh= 2.348E-05 alpha_mix =  0.700 |ddv_scf|^2 =  3.824E-09

      iter #   3 total cpu time :   162.7 secs   av.it.:  11.2
      thresh= 6.184E-06 alpha_mix =  0.700 |ddv_scf|^2 =  5.527E-11

      iter #   4 total cpu time :   165.8 secs   av.it.:  11.3
      thresh= 7.435E-07 alpha_mix =  0.700 |ddv_scf|^2 =  5.547E-13

      iter #   5 total cpu time :   169.8 secs   av.it.:  11.3
      thresh= 7.448E-08 alpha_mix =  0.700 |ddv_scf|^2 =  1.079E-14

      iter #   6 total cpu time :   173.3 secs   av.it.:  11.5
      thresh= 1.039E-08 alpha_mix =  0.700 |ddv_scf|^2 =  7.347E-17

     End of self-consistent calculation

     Convergence has been achieved 
 
     Number of q in the star =    8
     List of q in the star:
          1  -0.333333333   0.333333333  -0.333333333
          2   0.333333333   0.333333333   0.333333333
          3  -0.333333333  -0.333333333  -0.333333333
          4   0.333333333  -0.333333333   0.333333333
          5   0.333333333  -0.333333333  -0.333333333
          6   0.333333333   0.333333333  -0.333333333
          7  -0.333333333  -0.333333333   0.333333333
          8  -0.333333333   0.333333333   0.333333333

     Diagonalizing the dynamical matrix

     q = (   -0.333333333   0.333333333  -0.333333333 ) 

 **************************************************************************
     freq (    1) =       3.044081 [THz] =     101.539612 [cm-1]
     freq (    2) =       3.044081 [THz] =     101.539612 [cm-1]
     freq (    3) =       8.747640 [THz] =     291.789867 [cm-1]
     freq (    4) =      13.857043 [THz] =     462.221210 [cm-1]
     freq (    5) =      14.763295 [THz] =     492.450499 [cm-1]
     freq (    6) =      14.763295 [THz] =     492.450499 [cm-1]
 **************************************************************************

     Mode symmetry, C_3v (3m)   point group:

     freq (   1-   2) =        101.5  [cm-1]   --> E    L_3           
     freq (   3-   3) =        291.8  [cm-1]   --> A_1  L_1           
     freq (   4-   4) =        462.2  [cm-1]   --> A_1  L_1           
     freq (   5-   6) =        492.5  [cm-1]   --> E    L_3           

     Calculation of q =    0.5000000  -0.5000000   0.5000000
 
     Parallelization info
     --------------------
     sticks:   dense  smooth     PW     G-vecs:    dense   smooth      PW
     Min          50      50     16                 1043     1043     200
     Max          51      51     17                 1046     1046     202
     Sum        1003    1003    337                20875    20875    4015
 
     Using Slab Decomposition
 

     Title: 
     default                                                                    


     bravais-lattice index     =            2
     lattice parameter (alat)  =      10.1899  a.u.
     unit-cell volume          =     264.5151 (a.u.)^3
     number of atoms/cell      =            2
     number of atomic types    =            1
     number of electrons       =         8.00
     number of Kohn-Sham states=            4
     kinetic-energy cutoff     =      70.0000  Ry
     charge density cutoff     =     280.0000  Ry
     Exchange-correlation= PW
                           (   1   4   0   0   0   0   0)

     celldm(1)=  10.189905  celldm(2)=   0.000000  celldm(3)=   0.000000
     celldm(4)=   0.000000  celldm(5)=   0.000000  celldm(6)=   0.000000

     crystal axes: (cart. coord. in units of alat)
               a(1) = (  -0.500000   0.000000   0.500000 )  
               a(2) = (   0.000000   0.500000   0.500000 )  
               a(3) = (  -0.500000   0.500000   0.000000 )  

     reciprocal axes: (cart. coord. in units 2 pi/alat)
               b(1) = ( -1.000000 -1.000000  1.000000 )  
               b(2) = (  1.000000  1.000000  1.000000 )  
               b(3) = ( -1.000000  1.000000 -1.000000 )  


     PseudoPot. # 1 for Si read from file:
     ./pseudos/Si.nc.UPF
     MD5 check sum: 9e2d726316af3d4752eea8ab0afbb951
     Pseudo is Norm-conserving + core correction, Zval =  4.0
     Generated using ONCVPSP code by D. R. Hamann
     Using radial grid of 1510 points,  6 beta functions with: 
                l(1) =   0
                l(2) =   0
                l(3) =   1
                l(4) =   1
                l(5) =   2
                l(6) =   2

     atomic species   valence    mass     pseudopotential
        Si             4.00    28.08550     Si( 1.00)

     48 Sym. Ops., with inversion, found



   Cartesian axes

     site n.     atom                  positions (alat units)
         1           Si  tau(   1) = (   0.0000000   0.0000000   0.0000000  )
         2           Si  tau(   2) = (  -0.2500000   0.2500000   0.2500000  )

     number of k points=   182

     Number of k-points >= 100: set verbosity='high' to print them.

     Dense  grid:    20875 G-vectors     FFT dimensions: (  40,  40,  40)

     Estimated max dynamical RAM per process >       1.89 MB

     Estimated total dynamical RAM >      37.85 MB

     The potential is recalculated from file :
     /fastscratch/tsievers/QE_TMP_DIR/_ph0/silicon_ph_bench_nd_9_n_procs_20_1.save/charge-density

     Starting wfcs are    8 atomic wfcs

     Band Structure Calculation
     Davidson diagonalization with overlap

     ethr =  1.25E-10,  avg # of iterations = 12.9

     total cpu time spent up to now is       24.7 secs

     End of band structure calculation

     Number of k-points >= 100: set verbosity='high' to print the bands.

     highest occupied level (ev):     6.1106

     Writing config to output data dir /fastscratch/tsievers/QE_TMP_DIR/_ph0/silicon_ph_bench_nd_9_n_procs_20_1.save/

     default                                                                    

     bravais-lattice index     =            2
     lattice parameter (alat)  =      10.1899  a.u.
     unit-cell volume          =     264.5151 (a.u.)^3
     number of atoms/cell      =            2
     number of atomic types    =            1
     kinetic-energy cut-off    =      70.0000  Ry
     charge density cut-off    =     280.0000  Ry
     convergence threshold     =      1.0E-15
     beta                      =       0.7000
     number of iterations used =            4
     Exchange-correlation= PW
                           (   1   4   0   0   0   0   0)


     celldm(1)=   10.18990  celldm(2)=    0.00000  celldm(3)=    0.00000
     celldm(4)=    0.00000  celldm(5)=    0.00000  celldm(6)=    0.00000

     crystal axes: (cart. coord. in units of alat)
               a(1) = ( -0.5000  0.0000  0.5000 )  
               a(2) = (  0.0000  0.5000  0.5000 )  
               a(3) = ( -0.5000  0.5000  0.0000 )  

     reciprocal axes: (cart. coord. in units 2 pi/alat)
               b(1) = ( -1.0000 -1.0000  1.0000 )  
               b(2) = (  1.0000  1.0000  1.0000 )  
               b(3) = ( -1.0000  1.0000 -1.0000 )  


     Atoms inside the unit cell: 

     Cartesian axes

     site n.  atom      mass           positions (alat units)
        1     Si  28.0855   tau(    1) = (    0.00000    0.00000    0.00000  )
        2     Si  28.0855   tau(    2) = (   -0.25000    0.25000    0.25000  )

     Computing dynamical matrix for 
                    q = (   0.5000000  -0.5000000   0.5000000 )
 
     13 Sym.Ops. (with q -> -q+G )


     G cutoff =  736.4420  (   1044 G-vectors)     FFT grid: ( 40, 40, 40)
     number of k points=   182

     PseudoPot. # 1 for Si read from file:
     ./pseudos/Si.nc.UPF
     MD5 check sum: 9e2d726316af3d4752eea8ab0afbb951
     Pseudo is Norm-conserving + core correction, Zval =  4.0
     Generated using ONCVPSP code by D. R. Hamann
     Using radial grid of 1510 points,  6 beta functions with: 
                l(1) =   0
                l(2) =   0
                l(3) =   1
                l(4) =   1
                l(5) =   2
                l(6) =   2


     Atomic displacements:
     There are    4 irreducible representations

     Representation     1      1 modes -  To be done

     Representation     2      1 modes -  To be done

     Representation     3      2 modes -  To be done

     Representation     4      2 modes -  To be done



     Alpha used in Ewald sum =   2.8000
     PHONON       :   2m39.39s CPU   2m59.12s WALL



     Representation #   1 mode #   1

     Self-consistent Calculation

      iter #   1 total cpu time :   179.7 secs   av.it.:   5.8
      thresh= 1.000E-02 alpha_mix =  0.700 |ddv_scf|^2 =  3.144E-06

      iter #   2 total cpu time :   180.4 secs   av.it.:   9.9
      thresh= 1.773E-04 alpha_mix =  0.700 |ddv_scf|^2 =  2.900E-06

      iter #   3 total cpu time :   181.2 secs   av.it.:   9.2
      thresh= 1.703E-04 alpha_mix =  0.700 |ddv_scf|^2 =  3.880E-10

      iter #   4 total cpu time :   182.0 secs   av.it.:  10.1
      thresh= 1.970E-06 alpha_mix =  0.700 |ddv_scf|^2 =  6.679E-12

      iter #   5 total cpu time :   182.8 secs   av.it.:   9.7
      thresh= 2.584E-07 alpha_mix =  0.700 |ddv_scf|^2 =  9.553E-14

      iter #   6 total cpu time :   183.5 secs   av.it.:   9.7
      thresh= 3.091E-08 alpha_mix =  0.700 |ddv_scf|^2 =  1.252E-15

      iter #   7 total cpu time :   184.3 secs   av.it.:   9.7
      thresh= 3.538E-09 alpha_mix =  0.700 |ddv_scf|^2 =  4.272E-18

     End of self-consistent calculation

     Convergence has been achieved 


     Representation #   2 mode #   2

     Self-consistent Calculation

      iter #   1 total cpu time :   184.9 secs   av.it.:   6.7
      thresh= 1.000E-02 alpha_mix =  0.700 |ddv_scf|^2 =  4.802E-05

      iter #   2 total cpu time :   185.7 secs   av.it.:  10.0
      thresh= 6.930E-04 alpha_mix =  0.700 |ddv_scf|^2 =  1.569E-04

      iter #   3 total cpu time :   186.5 secs   av.it.:   9.0
      thresh= 1.253E-03 alpha_mix =  0.700 |ddv_scf|^2 =  9.297E-09

      iter #   4 total cpu time :   187.2 secs   av.it.:   9.7
      thresh= 9.642E-06 alpha_mix =  0.700 |ddv_scf|^2 =  1.946E-10

      iter #   5 total cpu time :   188.1 secs   av.it.:  10.3
      thresh= 1.395E-06 alpha_mix =  0.700 |ddv_scf|^2 =  9.631E-12

      iter #   6 total cpu time :   188.9 secs   av.it.:  10.0
      thresh= 3.103E-07 alpha_mix =  0.700 |ddv_scf|^2 =  2.661E-13

      iter #   7 total cpu time :   189.6 secs   av.it.:   9.4
      thresh= 5.159E-08 alpha_mix =  0.700 |ddv_scf|^2 =  7.439E-17

     End of self-consistent calculation

     Convergence has been achieved 


     Representation #   3 modes #   3   4

     Self-consistent Calculation

      iter #   1 total cpu time :   191.0 secs   av.it.:   6.1
      thresh= 1.000E-02 alpha_mix =  0.700 |ddv_scf|^2 =  1.110E-07

      iter #   2 total cpu time :   192.6 secs   av.it.:  11.2
      thresh= 3.331E-05 alpha_mix =  0.700 |ddv_scf|^2 =  9.408E-09

      iter #   3 total cpu time :   194.3 secs   av.it.:  11.1
      thresh= 9.699E-06 alpha_mix =  0.700 |ddv_scf|^2 =  6.299E-11

      iter #   4 total cpu time :   196.0 secs   av.it.:  11.1
      thresh= 7.937E-07 alpha_mix =  0.700 |ddv_scf|^2 =  7.043E-14

      iter #   5 total cpu time :   197.6 secs   av.it.:  11.3
      thresh= 2.654E-08 alpha_mix =  0.700 |ddv_scf|^2 =  9.272E-16

     End of self-consistent calculation

     Convergence has been achieved 


     Representation #   4 modes #   5   6

     Self-consistent Calculation

      iter #   1 total cpu time :   198.7 secs   av.it.:   5.5
      thresh= 1.000E-02 alpha_mix =  0.700 |ddv_scf|^2 =  1.260E-08

      iter #   2 total cpu time :   200.4 secs   av.it.:  11.2
      thresh= 1.122E-05 alpha_mix =  0.700 |ddv_scf|^2 =  3.302E-10

      iter #   3 total cpu time :   202.1 secs   av.it.:  11.2
      thresh= 1.817E-06 alpha_mix =  0.700 |ddv_scf|^2 =  2.030E-11

      iter #   4 total cpu time :   203.8 secs   av.it.:  11.2
      thresh= 4.506E-07 alpha_mix =  0.700 |ddv_scf|^2 =  8.685E-14

      iter #   5 total cpu time :   205.5 secs   av.it.:  11.2
      thresh= 2.947E-08 alpha_mix =  0.700 |ddv_scf|^2 =  1.387E-15

      iter #   6 total cpu time :   207.1 secs   av.it.:  11.2
      thresh= 3.725E-09 alpha_mix =  0.700 |ddv_scf|^2 =  2.936E-18

     End of self-consistent calculation

     Convergence has been achieved 
 
     Number of q in the star =    4
     List of q in the star:
          1   0.500000000  -0.500000000   0.500000000
          2   0.500000000   0.500000000   0.500000000
          3  -0.500000000   0.500000000   0.500000000
          4   0.500000000   0.500000000  -0.500000000

     Diagonalizing the dynamical matrix

     q = (    0.500000000  -0.500000000   0.500000000 ) 

 **************************************************************************
     freq (    1) =       3.158303 [THz] =     105.349655 [cm-1]
     freq (    2) =       3.158303 [THz] =     105.349655 [cm-1]
     freq (    3) =      11.168974 [THz] =     372.556871 [cm-1]
     freq (    4) =      12.390704 [THz] =     413.309395 [cm-1]
     freq (    5) =      14.704258 [THz] =     490.481249 [cm-1]
     freq (    6) =      14.704258 [THz] =     490.481249 [cm-1]
 **************************************************************************

     Calculation of q =    0.0000000   0.3333333   0.0000000
 
     Parallelization info
     --------------------
     sticks:   dense  smooth     PW     G-vecs:    dense   smooth      PW
     Min          50      50     15                 1043     1043     184
     Max          51      51     16                 1046     1046     188
     Sum        1003    1003    313                20875    20875    3719
 
     Using Slab Decomposition
 

     Title: 
     default                                                                    


     bravais-lattice index     =            2
     lattice parameter (alat)  =      10.1899  a.u.
     unit-cell volume          =     264.5151 (a.u.)^3
     number of atoms/cell      =            2
     number of atomic types    =            1
     number of electrons       =         8.00
     number of Kohn-Sham states=            4
     kinetic-energy cutoff     =      70.0000  Ry
     charge density cutoff     =     280.0000  Ry
     Exchange-correlation= PW
                           (   1   4   0   0   0   0   0)

     celldm(1)=  10.189905  celldm(2)=   0.000000  celldm(3)=   0.000000
     celldm(4)=   0.000000  celldm(5)=   0.000000  celldm(6)=   0.000000

     crystal axes: (cart. coord. in units of alat)
               a(1) = (  -0.500000   0.000000   0.500000 )  
               a(2) = (   0.000000   0.500000   0.500000 )  
               a(3) = (  -0.500000   0.500000   0.000000 )  

     reciprocal axes: (cart. coord. in units 2 pi/alat)
               b(1) = ( -1.000000 -1.000000  1.000000 )  
               b(2) = (  1.000000  1.000000  1.000000 )  
               b(3) = ( -1.000000  1.000000 -1.000000 )  


     PseudoPot. # 1 for Si read from file:
     ./pseudos/Si.nc.UPF
     MD5 check sum: 9e2d726316af3d4752eea8ab0afbb951
     Pseudo is Norm-conserving + core correction, Zval =  4.0
     Generated using ONCVPSP code by D. R. Hamann
     Using radial grid of 1510 points,  6 beta functions with: 
                l(1) =   0
                l(2) =   0
                l(3) =   1
                l(4) =   1
                l(5) =   2
                l(6) =   2

     atomic species   valence    mass     pseudopotential
        Si             4.00    28.08550     Si( 1.00)

     48 Sym. Ops., with inversion, found



   Cartesian axes

     site n.     atom                  positions (alat units)
         1           Si  tau(   1) = (   0.0000000   0.0000000   0.0000000  )
         2           Si  tau(   2) = (  -0.2500000   0.2500000   0.2500000  )

     number of k points=   252

     Number of k-points >= 100: set verbosity='high' to print them.

     Dense  grid:    20875 G-vectors     FFT dimensions: (  40,  40,  40)

     Estimated max dynamical RAM per process >       1.87 MB

     Estimated total dynamical RAM >      37.32 MB

     The potential is recalculated from file :
     /fastscratch/tsievers/QE_TMP_DIR/_ph0/silicon_ph_bench_nd_9_n_procs_20_1.save/charge-density

     Starting wfcs are    8 atomic wfcs

     Band Structure Calculation
     Davidson diagonalization with overlap

     ethr =  1.25E-10,  avg # of iterations = 12.8

     total cpu time spent up to now is       31.5 secs

     End of band structure calculation

     Number of k-points >= 100: set verbosity='high' to print the bands.

     highest occupied level (ev):     6.1106

     Writing config to output data dir /fastscratch/tsievers/QE_TMP_DIR/_ph0/silicon_ph_bench_nd_9_n_procs_20_1.save/

     default                                                                    

     bravais-lattice index     =            2
     lattice parameter (alat)  =      10.1899  a.u.
     unit-cell volume          =     264.5151 (a.u.)^3
     number of atoms/cell      =            2
     number of atomic types    =            1
     kinetic-energy cut-off    =      70.0000  Ry
     charge density cut-off    =     280.0000  Ry
     convergence threshold     =      1.0E-15
     beta                      =       0.7000
     number of iterations used =            4
     Exchange-correlation= PW
                           (   1   4   0   0   0   0   0)


     celldm(1)=   10.18990  celldm(2)=    0.00000  celldm(3)=    0.00000
     celldm(4)=    0.00000  celldm(5)=    0.00000  celldm(6)=    0.00000

     crystal axes: (cart. coord. in units of alat)
               a(1) = ( -0.5000  0.0000  0.5000 )  
               a(2) = (  0.0000  0.5000  0.5000 )  
               a(3) = ( -0.5000  0.5000  0.0000 )  

     reciprocal axes: (cart. coord. in units 2 pi/alat)
               b(1) = ( -1.0000 -1.0000  1.0000 )  
               b(2) = (  1.0000  1.0000  1.0000 )  
               b(3) = ( -1.0000  1.0000 -1.0000 )  


     Atoms inside the unit cell: 

     Cartesian axes

     site n.  atom      mass           positions (alat units)
        1     Si  28.0855   tau(    1) = (    0.00000    0.00000    0.00000  )
        2     Si  28.0855   tau(    2) = (   -0.25000    0.25000    0.25000  )

     Computing dynamical matrix for 
                    q = (   0.0000000   0.3333333   0.0000000 )
 
      8 Sym.Ops. (no q -> -q+G )


     G cutoff =  736.4420  (   1044 G-vectors)     FFT grid: ( 40, 40, 40)
     number of k points=   252

     PseudoPot. # 1 for Si read from file:
     ./pseudos/Si.nc.UPF
     MD5 check sum: 9e2d726316af3d4752eea8ab0afbb951
     Pseudo is Norm-conserving + core correction, Zval =  4.0
     Generated using ONCVPSP code by D. R. Hamann
     Using radial grid of 1510 points,  6 beta functions with: 
                l(1) =   0
                l(2) =   0
                l(3) =   1
                l(4) =   1
                l(5) =   2
                l(6) =   2

     Mode symmetry, C_4v (4mm)  point group:


     Atomic displacements:
     There are    4 irreducible representations

     Representation     1      1 modes -  To be done

     Representation     2      1 modes -  To be done

     Representation     3      2 modes -  To be done

     Representation     4      2 modes -  To be done



     Alpha used in Ewald sum =   2.8000
     PHONON       :   3m11.13s CPU   3m35.39s WALL



     Representation #   1 mode #   1

     Self-consistent Calculation

      iter #   1 total cpu time :   216.2 secs   av.it.:   6.8
      thresh= 1.000E-02 alpha_mix =  0.700 |ddv_scf|^2 =  2.084E-03

      iter #   2 total cpu time :   217.1 secs   av.it.:   9.1
      thresh= 4.565E-03 alpha_mix =  0.700 |ddv_scf|^2 =  6.356E-02

      iter #   3 total cpu time :   218.0 secs   av.it.:   8.1
      thresh= 1.000E-02 alpha_mix =  0.700 |ddv_scf|^2 =  5.824E-08

      iter #   4 total cpu time :   219.0 secs   av.it.:   9.0
      thresh= 2.413E-05 alpha_mix =  0.700 |ddv_scf|^2 =  2.788E-09

      iter #   5 total cpu time :   219.9 secs   av.it.:   8.6
      thresh= 5.280E-06 alpha_mix =  0.700 |ddv_scf|^2 =  9.066E-10

      iter #   6 total cpu time :   220.8 secs   av.it.:   8.1
      thresh= 3.011E-06 alpha_mix =  0.700 |ddv_scf|^2 =  1.237E-12

      iter #   7 total cpu time :   221.7 secs   av.it.:   8.4
      thresh= 1.112E-07 alpha_mix =  0.700 |ddv_scf|^2 =  2.767E-14

      iter #   8 total cpu time :   222.5 secs   av.it.:   8.3
      thresh= 1.664E-08 alpha_mix =  0.700 |ddv_scf|^2 =  3.519E-16

     End of self-consistent calculation

     Convergence has been achieved 


     Representation #   2 mode #   2

     Self-consistent Calculation

      iter #   1 total cpu time :   223.4 secs   av.it.:   5.9
      thresh= 1.000E-02 alpha_mix =  0.700 |ddv_scf|^2 =  3.182E-07

      iter #   2 total cpu time :   224.5 secs   av.it.:  10.4
      thresh= 5.641E-05 alpha_mix =  0.700 |ddv_scf|^2 =  5.145E-08

      iter #   3 total cpu time :   225.5 secs   av.it.:  10.2
      thresh= 2.268E-05 alpha_mix =  0.700 |ddv_scf|^2 =  6.508E-10

      iter #   4 total cpu time :   226.6 secs   av.it.:  10.4
      thresh= 2.551E-06 alpha_mix =  0.700 |ddv_scf|^2 =  2.703E-11

      iter #   5 total cpu time :   227.6 secs   av.it.:  10.3
      thresh= 5.199E-07 alpha_mix =  0.700 |ddv_scf|^2 =  6.160E-14

      iter #   6 total cpu time :   228.7 secs   av.it.:  10.4
      thresh= 2.482E-08 alpha_mix =  0.700 |ddv_scf|^2 =  1.230E-15

      iter #   7 total cpu time :   229.7 secs   av.it.:  10.4
      thresh= 3.507E-09 alpha_mix =  0.700 |ddv_scf|^2 =  2.874E-17

     End of self-consistent calculation

     Convergence has been achieved 


     Representation #   3 modes #   3   4

     Self-consistent Calculation

      iter #   1 total cpu time :   231.2 secs   av.it.:   6.1
      thresh= 1.000E-02 alpha_mix =  0.700 |ddv_scf|^2 =  5.759E-08

      iter #   2 total cpu time :   233.4 secs   av.it.:  11.3
      thresh= 2.400E-05 alpha_mix =  0.700 |ddv_scf|^2 =  5.250E-09

      iter #   3 total cpu time :   235.6 secs   av.it.:  11.1
      thresh= 7.245E-06 alpha_mix =  0.700 |ddv_scf|^2 =  6.118E-11

      iter #   4 total cpu time :   238.5 secs   av.it.:  11.3
      thresh= 7.822E-07 alpha_mix =  0.700 |ddv_scf|^2 =  6.882E-13

      iter #   5 total cpu time :   240.7 secs   av.it.:  11.2
      thresh= 8.296E-08 alpha_mix =  0.700 |ddv_scf|^2 =  1.142E-14

      iter #   6 total cpu time :   243.4 secs   av.it.:  11.5
      thresh= 1.069E-08 alpha_mix =  0.700 |ddv_scf|^2 =  4.653E-17

     End of self-consistent calculation

     Convergence has been achieved 


     Representation #   4 modes #   5   6

     Self-consistent Calculation

      iter #   1 total cpu time :   245.1 secs   av.it.:   6.0
      thresh= 1.000E-02 alpha_mix =  0.700 |ddv_scf|^2 =  7.592E-08

      iter #   2 total cpu time :   247.3 secs   av.it.:  11.2
      thresh= 2.755E-05 alpha_mix =  0.700 |ddv_scf|^2 =  7.159E-09

      iter #   3 total cpu time :   250.2 secs   av.it.:  11.0
      thresh= 8.461E-06 alpha_mix =  0.700 |ddv_scf|^2 =  6.477E-11

      iter #   4 total cpu time :   252.4 secs   av.it.:  11.2
      thresh= 8.048E-07 alpha_mix =  0.700 |ddv_scf|^2 =  4.403E-13

      iter #   5 total cpu time :   254.7 secs   av.it.:  11.1
      thresh= 6.636E-08 alpha_mix =  0.700 |ddv_scf|^2 =  1.046E-14

      iter #   6 total cpu time :   256.9 secs   av.it.:  11.5
      thresh= 1.023E-08 alpha_mix =  0.700 |ddv_scf|^2 =  4.428E-17

     End of self-consistent calculation

     Convergence has been achieved 
 
     Number of q in the star =    6
     List of q in the star:
          1   0.000000000   0.333333333   0.000000000
          2   0.333333333   0.000000000   0.000000000
          3   0.000000000   0.000000000   0.333333333
          4   0.000000000  -0.333333333   0.000000000
          5  -0.333333333   0.000000000   0.000000000
          6   0.000000000   0.000000000  -0.333333333

     Diagonalizing the dynamical matrix

     q = (    0.000000000   0.333333333   0.000000000 ) 

 **************************************************************************
     freq (    1) =       2.948429 [THz] =      98.348992 [cm-1]
     freq (    2) =       2.948429 [THz] =      98.348992 [cm-1]
     freq (    3) =       4.953312 [THz] =     165.224699 [cm-1]
     freq (    4) =      14.670272 [THz] =     489.347604 [cm-1]
     freq (    5) =      14.670272 [THz] =     489.347604 [cm-1]
     freq (    6) =      15.143119 [THz] =     505.120090 [cm-1]
 **************************************************************************

     Mode symmetry, C_4v (4mm)  point group:

     freq (   1-   2) =         98.3  [cm-1]   --> E    G_5 D_5       
     freq (   3-   3) =        165.2  [cm-1]   --> A_1  G_1 D_1       
     freq (   4-   5) =        489.3  [cm-1]   --> E    G_5 D_5       
     freq (   6-   6) =        505.1  [cm-1]   --> B_2  G_4 D_2'      

     Calculation of q =   -0.1666667   0.5000000  -0.1666667
 
     Parallelization info
     --------------------
     sticks:   dense  smooth     PW     G-vecs:    dense   smooth      PW
     Min          50      50     15                 1043     1043     189
     Max          51      51     16                 1046     1046     194
     Sum        1003    1003    313                20875    20875    3839
 
     Using Slab Decomposition
 

     Title: 
     default                                                                    


     bravais-lattice index     =            2
     lattice parameter (alat)  =      10.1899  a.u.
     unit-cell volume          =     264.5151 (a.u.)^3
     number of atoms/cell      =            2
     number of atomic types    =            1
     number of electrons       =         8.00
     number of Kohn-Sham states=            4
     kinetic-energy cutoff     =      70.0000  Ry
     charge density cutoff     =     280.0000  Ry
     Exchange-correlation= PW
                           (   1   4   0   0   0   0   0)

     celldm(1)=  10.189905  celldm(2)=   0.000000  celldm(3)=   0.000000
     celldm(4)=   0.000000  celldm(5)=   0.000000  celldm(6)=   0.000000

     crystal axes: (cart. coord. in units of alat)
               a(1) = (  -0.500000   0.000000   0.500000 )  
               a(2) = (   0.000000   0.500000   0.500000 )  
               a(3) = (  -0.500000   0.500000   0.000000 )  

     reciprocal axes: (cart. coord. in units 2 pi/alat)
               b(1) = ( -1.000000 -1.000000  1.000000 )  
               b(2) = (  1.000000  1.000000  1.000000 )  
               b(3) = ( -1.000000  1.000000 -1.000000 )  


     PseudoPot. # 1 for Si read from file:
     ./pseudos/Si.nc.UPF
     MD5 check sum: 9e2d726316af3d4752eea8ab0afbb951
     Pseudo is Norm-conserving + core correction, Zval =  4.0
     Generated using ONCVPSP code by D. R. Hamann
     Using radial grid of 1510 points,  6 beta functions with: 
                l(1) =   0
                l(2) =   0
                l(3) =   1
                l(4) =   1
                l(5) =   2
                l(6) =   2

     atomic species   valence    mass     pseudopotential
        Si             4.00    28.08550     Si( 1.00)

     48 Sym. Ops., with inversion, found



   Cartesian axes

     site n.     atom                  positions (alat units)
         1           Si  tau(   1) = (   0.0000000   0.0000000   0.0000000  )
         2           Si  tau(   2) = (  -0.2500000   0.2500000   0.2500000  )

     number of k points=   936

     Number of k-points >= 100: set verbosity='high' to print them.

     Dense  grid:    20875 G-vectors     FFT dimensions: (  40,  40,  40)

     Estimated max dynamical RAM per process >       1.88 MB

     Estimated total dynamical RAM >      37.54 MB

     The potential is recalculated from file :
     /fastscratch/tsievers/QE_TMP_DIR/_ph0/silicon_ph_bench_nd_9_n_procs_20_1.save/charge-density

     Starting wfcs are    8 atomic wfcs

     Band Structure Calculation
     Davidson diagonalization with overlap

     ethr =  1.25E-10,  avg # of iterations = 12.8

     total cpu time spent up to now is       57.1 secs

     End of band structure calculation

     Number of k-points >= 100: set verbosity='high' to print the bands.

     highest occupied level (ev):     6.1106

     Writing config to output data dir /fastscratch/tsievers/QE_TMP_DIR/_ph0/silicon_ph_bench_nd_9_n_procs_20_1.save/

     default                                                                    

     bravais-lattice index     =            2
     lattice parameter (alat)  =      10.1899  a.u.
     unit-cell volume          =     264.5151 (a.u.)^3
     number of atoms/cell      =            2
     number of atomic types    =            1
     kinetic-energy cut-off    =      70.0000  Ry
     charge density cut-off    =     280.0000  Ry
     convergence threshold     =      1.0E-15
     beta                      =       0.7000
     number of iterations used =            4
     Exchange-correlation= PW
                           (   1   4   0   0   0   0   0)


[...]
         2           Si  tau(   2) = (  -0.2500000   0.2500000   0.2500000  )

     number of k points=   864

     Number of k-points >= 100: set verbosity='high' to print them.

     Dense  grid:    20875 G-vectors     FFT dimensions: (  40,  40,  40)

     Estimated max dynamical RAM per process >       1.90 MB

     Estimated total dynamical RAM >      37.98 MB

     The potential is recalculated from file :
     /fastscratch/tsievers/QE_TMP_DIR/_ph0/silicon_ph_bench_nd_9_n_procs_20_1.save/charge-density

     Starting wfcs are    8 atomic wfcs

     Band Structure Calculation
     Davidson diagonalization with overlap

     ethr =  1.25E-10,  avg # of iterations = 12.8

     total cpu time spent up to now is      219.3 secs

     End of band structure calculation

     Number of k-points >= 100: set verbosity='high' to print the bands.

     highest occupied level (ev):     6.1106

     Writing config to output data dir /fastscratch/tsievers/QE_TMP_DIR/_ph0/silicon_ph_bench_nd_9_n_procs_20_1.save/

     default                                                                    

     bravais-lattice index     =            2
     lattice parameter (alat)  =      10.1899  a.u.
     unit-cell volume          =     264.5151 (a.u.)^3
     number of atoms/cell      =            2
     number of atomic types    =            1
     kinetic-energy cut-off    =      70.0000  Ry
     charge density cut-off    =     280.0000  Ry
     convergence threshold     =      1.0E-15
     beta                      =       0.7000
     number of iterations used =            4
     Exchange-correlation= PW
                           (   1   4   0   0   0   0   0)


     celldm(1)=   10.18990  celldm(2)=    0.00000  celldm(3)=    0.00000
     celldm(4)=    0.00000  celldm(5)=    0.00000  celldm(6)=    0.00000

     crystal axes: (cart. coord. in units of alat)
               a(1) = ( -0.5000  0.0000  0.5000 )  
               a(2) = (  0.0000  0.5000  0.5000 )  
               a(3) = ( -0.5000  0.5000  0.0000 )  

     reciprocal axes: (cart. coord. in units 2 pi/alat)
               b(1) = ( -1.0000 -1.0000  1.0000 )  
               b(2) = (  1.0000  1.0000  1.0000 )  
               b(3) = ( -1.0000  1.0000 -1.0000 )  


     Atoms inside the unit cell: 

     Cartesian axes

     site n.  atom      mass           positions (alat units)
        1     Si  28.0855   tau(    1) = (    0.00000    0.00000    0.00000  )
        2     Si  28.0855   tau(    2) = (   -0.25000    0.25000    0.25000  )

     Computing dynamical matrix for 
                    q = (   0.5000000  -0.1666667   0.8333333 )
 
      2 Sym.Ops. (no q -> -q+G )


     G cutoff =  736.4420  (   1044 G-vectors)     FFT grid: ( 40, 40, 40)
     number of k points=   864

     PseudoPot. # 1 for Si read from file:
     ./pseudos/Si.nc.UPF
     MD5 check sum: 9e2d726316af3d4752eea8ab0afbb951
     Pseudo is Norm-conserving + core correction, Zval =  4.0
     Generated using ONCVPSP code by D. R. Hamann
     Using radial grid of 1510 points,  6 beta functions with: 
                l(1) =   0
                l(2) =   0
                l(3) =   1
                l(4) =   1
                l(5) =   2
                l(6) =   2


     Atomic displacements:
     There are    6 irreducible representations

     Representation     1      1 modes -  To be done

     Representation     2      1 modes -  To be done

     Representation     3      1 modes -  To be done

     Representation     4      1 modes -  To be done

     Representation     5      1 modes -  To be done

     Representation     6      1 modes -  To be done



     Alpha used in Ewald sum =   2.8000
     PHONON       :  25m25.65s CPU  28m 6.42s WALL



     Representation #   1 mode #   1

     Self-consistent Calculation

      iter #   1 total cpu time :  1688.9 secs   av.it.:   6.1
      thresh= 1.000E-02 alpha_mix =  0.700 |ddv_scf|^2 =  2.001E-06

      iter #   2 total cpu time :  1692.4 secs   av.it.:  10.6
      thresh= 1.415E-04 alpha_mix =  0.700 |ddv_scf|^2 =  3.240E-06

      iter #   3 total cpu time :  1695.8 secs   av.it.:   9.6
      thresh= 1.800E-04 alpha_mix =  0.700 |ddv_scf|^2 =  7.336E-09

      iter #   4 total cpu time :  1699.3 secs   av.it.:  10.3
      thresh= 8.565E-06 alpha_mix =  0.700 |ddv_scf|^2 =  2.297E-10

      iter #   5 total cpu time :  1702.8 secs   av.it.:  10.5
      thresh= 1.515E-06 alpha_mix =  0.700 |ddv_scf|^2 =  2.279E-12

      iter #   6 total cpu time :  1706.4 secs   av.it.:  10.5
      thresh= 1.510E-07 alpha_mix =  0.700 |ddv_scf|^2 =  3.881E-14

      iter #   7 total cpu time :  1710.0 secs   av.it.:  10.7
      thresh= 1.970E-08 alpha_mix =  0.700 |ddv_scf|^2 =  1.773E-15

      iter #   8 total cpu time :  1713.6 secs   av.it.:  10.6
      thresh= 4.210E-09 alpha_mix =  0.700 |ddv_scf|^2 =  8.422E-16

     End of self-consistent calculation

     Convergence has been achieved 


     Representation #   2 mode #   2

     Self-consistent Calculation

      iter #   1 total cpu time :  1716.3 secs   av.it.:   6.5
      thresh= 1.000E-02 alpha_mix =  0.700 |ddv_scf|^2 =  7.709E-06

      iter #   2 total cpu time :  1721.9 secs   av.it.:  10.6
      thresh= 2.776E-04 alpha_mix =  0.700 |ddv_scf|^2 =  1.230E-05

      iter #   3 total cpu time :  1725.3 secs   av.it.:   9.7
      thresh= 3.507E-04 alpha_mix =  0.700 |ddv_scf|^2 =  2.372E-08

      iter #   4 total cpu time :  1728.9 secs   av.it.:  10.2
      thresh= 1.540E-05 alpha_mix =  0.700 |ddv_scf|^2 =  4.246E-10

      iter #   5 total cpu time :  1732.4 secs   av.it.:  10.4
      thresh= 2.061E-06 alpha_mix =  0.700 |ddv_scf|^2 =  2.343E-12

      iter #   6 total cpu time :  1736.0 secs   av.it.:  10.6
      thresh= 1.531E-07 alpha_mix =  0.700 |ddv_scf|^2 =  6.715E-14

      iter #   7 total cpu time :  1739.5 secs   av.it.:  10.5
      thresh= 2.591E-08 alpha_mix =  0.700 |ddv_scf|^2 =  7.604E-15

      iter #   8 total cpu time :  1743.1 secs   av.it.:  10.4
      thresh= 8.720E-09 alpha_mix =  0.700 |ddv_scf|^2 =  2.286E-16

     End of self-consistent calculation

     Convergence has been achieved 


     Representation #   3 mode #   3

     Self-consistent Calculation

      iter #   1 total cpu time :  1745.7 secs   av.it.:   6.3
      thresh= 1.000E-02 alpha_mix =  0.700 |ddv_scf|^2 =  4.691E-06

      iter #   2 total cpu time :  1750.1 secs   av.it.:  10.6
      thresh= 2.166E-04 alpha_mix =  0.700 |ddv_scf|^2 =  7.709E-06

      iter #   3 total cpu time :  1754.4 secs   av.it.:   9.7
      thresh= 2.777E-04 alpha_mix =  0.700 |ddv_scf|^2 =  9.886E-09

      iter #   4 total cpu time :  1757.9 secs   av.it.:  10.3
      thresh= 9.943E-06 alpha_mix =  0.700 |ddv_scf|^2 =  4.928E-10

      iter #   5 total cpu time :  1761.4 secs   av.it.:  10.4
      thresh= 2.220E-06 alpha_mix =  0.700 |ddv_scf|^2 =  6.074E-12

      iter #   6 total cpu time :  1765.0 secs   av.it.:  10.6
      thresh= 2.465E-07 alpha_mix =  0.700 |ddv_scf|^2 =  9.451E-14

      iter #   7 total cpu time :  1768.9 secs   av.it.:  10.5
      thresh= 3.074E-08 alpha_mix =  0.700 |ddv_scf|^2 =  7.243E-15

      iter #   8 total cpu time :  1772.6 secs   av.it.:  10.5
      thresh= 8.511E-09 alpha_mix =  0.700 |ddv_scf|^2 =  3.829E-16

     End of self-consistent calculation

     Convergence has been achieved 


     Representation #   4 mode #   4

     Self-consistent Calculation

      iter #   1 total cpu time :  1775.2 secs   av.it.:   6.3
      thresh= 1.000E-02 alpha_mix =  0.700 |ddv_scf|^2 =  4.805E-06

      iter #   2 total cpu time :  1778.8 secs   av.it.:  10.6
      thresh= 2.192E-04 alpha_mix =  0.700 |ddv_scf|^2 =  8.001E-06

      iter #   3 total cpu time :  1782.9 secs   av.it.:   9.6
      thresh= 2.829E-04 alpha_mix =  0.700 |ddv_scf|^2 =  1.198E-08

      iter #   4 total cpu time :  1787.4 secs   av.it.:  10.4
      thresh= 1.094E-05 alpha_mix =  0.700 |ddv_scf|^2 =  2.318E-10

      iter #   5 total cpu time :  1791.0 secs   av.it.:  10.5
      thresh= 1.523E-06 alpha_mix =  0.700 |ddv_scf|^2 =  3.084E-12

      iter #   6 total cpu time :  1794.5 secs   av.it.:  10.5
      thresh= 1.756E-07 alpha_mix =  0.700 |ddv_scf|^2 =  3.742E-14

      iter #   7 total cpu time :  1798.1 secs   av.it.:  10.7
      thresh= 1.934E-08 alpha_mix =  0.700 |ddv_scf|^2 =  2.303E-15

      iter #   8 total cpu time :  1801.8 secs   av.it.:  10.5
      thresh= 4.799E-09 alpha_mix =  0.700 |ddv_scf|^2 =  6.230E-16

     End of self-consistent calculation

     Convergence has been achieved 


     Representation #   5 mode #   5

     Self-consistent Calculation

      iter #   1 total cpu time :  1804.6 secs   av.it.:   6.6
      thresh= 1.000E-02 alpha_mix =  0.700 |ddv_scf|^2 =  5.382E-06

      iter #   2 total cpu time :  1808.2 secs   av.it.:  10.8
      thresh= 2.320E-04 alpha_mix =  0.700 |ddv_scf|^2 =  6.825E-06

      iter #   3 total cpu time :  1812.3 secs   av.it.:   9.9
      thresh= 2.612E-04 alpha_mix =  0.700 |ddv_scf|^2 =  7.812E-08

      iter #   4 total cpu time :  1816.9 secs   av.it.:  10.1
      thresh= 2.795E-05 alpha_mix =  0.700 |ddv_scf|^2 =  3.929E-10

      iter #   5 total cpu time :  1820.5 secs   av.it.:  10.5
      thresh= 1.982E-06 alpha_mix =  0.700 |ddv_scf|^2 =  9.970E-12

      iter #   6 total cpu time :  1824.4 secs   av.it.:  10.6
      thresh= 3.158E-07 alpha_mix =  0.700 |ddv_scf|^2 =  5.893E-14

      iter #   7 total cpu time :  1828.0 secs   av.it.:  10.5
      thresh= 2.428E-08 alpha_mix =  0.700 |ddv_scf|^2 =  7.212E-15

      iter #   8 total cpu time :  1831.6 secs   av.it.:  10.5
      thresh= 8.492E-09 alpha_mix =  0.700 |ddv_scf|^2 =  2.338E-15

      iter #   9 total cpu time :  1835.0 secs   av.it.:  10.0
      thresh= 4.835E-09 alpha_mix =  0.700 |ddv_scf|^2 =  3.449E-16

     End of self-consistent calculation

     Convergence has been achieved 


     Representation #   6 mode #   6

     Self-consistent Calculation

      iter #   1 total cpu time :  1837.7 secs   av.it.:   6.3
      thresh= 1.000E-02 alpha_mix =  0.700 |ddv_scf|^2 =  2.529E-06

      iter #   2 total cpu time :  1842.1 secs   av.it.:  10.7
      thresh= 1.590E-04 alpha_mix =  0.700 |ddv_scf|^2 =  2.774E-06

      iter #   3 total cpu time :  1846.2 secs   av.it.:   9.8
      thresh= 1.666E-04 alpha_mix =  0.700 |ddv_scf|^2 =  6.791E-08

      iter #   4 total cpu time :  1849.7 secs   av.it.:  10.0
      thresh= 2.606E-05 alpha_mix =  0.700 |ddv_scf|^2 =  2.217E-10

      iter #   5 total cpu time :  1853.2 secs   av.it.:  10.4
      thresh= 1.489E-06 alpha_mix =  0.700 |ddv_scf|^2 =  4.178E-12

      iter #   6 total cpu time :  1856.8 secs   av.it.:  10.5
      thresh= 2.044E-07 alpha_mix =  0.700 |ddv_scf|^2 =  1.950E-14

      iter #   7 total cpu time :  1861.0 secs   av.it.:  10.5
      thresh= 1.397E-08 alpha_mix =  0.700 |ddv_scf|^2 =  1.123E-15

      iter #   8 total cpu time :  1864.6 secs   av.it.:  10.7
      thresh= 3.351E-09 alpha_mix =  0.700 |ddv_scf|^2 =  3.316E-17

     End of self-consistent calculation

     Convergence has been achieved 
 
     Number of q in the star =   24
     List of q in the star:
          1   0.500000000  -0.166666667   0.833333333
          2   0.833333333   0.166666667   0.500000000
          3   0.500000000   0.166666667   0.833333333
          4  -0.833333333  -0.166666667   0.500000000
          5  -0.833333333  -0.166666667  -0.500000000
          6  -0.500000000  -0.166666667  -0.833333333
          7   0.833333333  -0.166666667   0.500000000
          8  -0.500000000  -0.166666667   0.833333333
          9  -0.833333333   0.166666667   0.500000000
         10   0.833333333   0.166666667  -0.500000000
         11   0.833333333  -0.166666667  -0.500000000
         12   0.500000000   0.166666667  -0.833333333
         13  -0.500000000   0.166666667   0.833333333
         14  -0.500000000   0.166666667  -0.833333333
         15  -0.833333333   0.166666667  -0.500000000
         16   0.833333333  -0.500000000   0.166666667
         17   0.833333333   0.500000000  -0.166666667
         18  -0.833333333  -0.500000000  -0.166666667
         19  -0.833333333   0.500000000   0.166666667
         20   0.166666667  -0.500000000   0.833333333
         21  -0.166666667   0.500000000   0.833333333
         22   0.166666667   0.500000000  -0.833333333
         23  -0.166666667  -0.500000000  -0.833333333
         24  -0.500000000   0.833333333   0.166666667

     Diagonalizing the dynamical matrix

     q = (    0.500000000  -0.166666667   0.833333333 ) 

 **************************************************************************
     freq (    1) =       5.051998 [THz] =     168.516503 [cm-1]
     freq (    2) =       6.066602 [THz] =     202.360049 [cm-1]
     freq (    3) =       9.812891 [THz] =     327.322818 [cm-1]
     freq (    4) =      11.453255 [THz] =     382.039466 [cm-1]
     freq (    5) =      14.041869 [THz] =     468.386347 [cm-1]
     freq (    6) =      14.270910 [THz] =     476.026317 [cm-1]
 **************************************************************************

     Calculation of q =   -0.3333333  -1.0000000   0.0000000
 
     Parallelization info
     --------------------
     sticks:   dense  smooth     PW     G-vecs:    dense   smooth      PW
     Min          50      50     17                 1043     1043     213
     Max          51      51     18                 1046     1046     216
     Sum        1003    1003    349                20875    20875    4279
 
     Using Slab Decomposition
 

     Title: 
     default                                                                    


     bravais-lattice index     =            2
     lattice parameter (alat)  =      10.1899  a.u.
     unit-cell volume          =     264.5151 (a.u.)^3
     number of atoms/cell      =            2
     number of atomic types    =            1
     number of electrons       =         8.00
     number of Kohn-Sham states=            4
     kinetic-energy cutoff     =      70.0000  Ry
     charge density cutoff     =     280.0000  Ry
     Exchange-correlation= PW
                           (   1   4   0   0   0   0   0)

     celldm(1)=  10.189905  celldm(2)=   0.000000  celldm(3)=   0.000000
     celldm(4)=   0.000000  celldm(5)=   0.000000  celldm(6)=   0.000000

     crystal axes: (cart. coord. in units of alat)
               a(1) = (  -0.500000   0.000000   0.500000 )  
               a(2) = (   0.000000   0.500000   0.500000 )  
               a(3) = (  -0.500000   0.500000   0.000000 )  

     reciprocal axes: (cart. coord. in units 2 pi/alat)
               b(1) = ( -1.000000 -1.000000  1.000000 )  
               b(2) = (  1.000000  1.000000  1.000000 )  
               b(3) = ( -1.000000  1.000000 -1.000000 )  


     PseudoPot. # 1 for Si read from file:
     ./pseudos/Si.nc.UPF
     MD5 check sum: 9e2d726316af3d4752eea8ab0afbb951
     Pseudo is Norm-conserving + core correction, Zval =  4.0
     Generated using ONCVPSP code by D. R. Hamann
     Using radial grid of 1510 points,  6 beta functions with: 
                l(1) =   0
                l(2) =   0
                l(3) =   1
                l(4) =   1
                l(5) =   2
                l(6) =   2

     atomic species   valence    mass     pseudopotential
        Si             4.00    28.08550     Si( 1.00)

     48 Sym. Ops., with inversion, found



   Cartesian axes

     site n.     atom                  positions (alat units)
         1           Si  tau(   1) = (   0.0000000   0.0000000   0.0000000  )
         2           Si  tau(   2) = (  -0.2500000   0.2500000   0.2500000  )

     number of k points=   432

     Number of k-points >= 100: set verbosity='high' to print them.

     Dense  grid:    20875 G-vectors     FFT dimensions: (  40,  40,  40)

     Estimated max dynamical RAM per process >       1.90 MB

     Estimated total dynamical RAM >      38.04 MB

     The potential is recalculated from file :
     /fastscratch/tsievers/QE_TMP_DIR/_ph0/silicon_ph_bench_nd_9_n_procs_20_1.save/charge-density

     Starting wfcs are    8 atomic wfcs

     Band Structure Calculation
     Davidson diagonalization with overlap
Abort(135876367) on node 0 (rank 0 in comm 0): Fatal error in PMPI_Comm_split: Other MPI error, error stack:
PMPI_Comm_split(495)................: MPI_Comm_split(comm=0xc4000019, color=0, key=0, new_comm=0x7ffd8c605548) failed
PMPI_Comm_split(477)................: 
MPIR_Comm_split_impl(246)...........: 
MPIR_Get_contextid_sparse_group(602): Too many communicators (32746/32768 free on this process; ignore_id=0)
Abort(202985231) on node 2 (rank 2 in comm 0): Fatal error in PMPI_Comm_split: Other MPI error, error stack:
PMPI_Comm_split(495)................: MPI_Comm_split(comm=0xc4000012, color=0, key=1, new_comm=0x7fff19051048) failed
PMPI_Comm_split(477)................: 
MPIR_Comm_split_impl(246)...........: 
MPIR_Get_contextid_sparse_group(602): Too many communicators (32746/32768 free on this process; ignore_id=0)
Abort(605638415) on node 4 (rank 4 in comm 0): Fatal error in PMPI_Comm_split: Other MPI error, error stack:
PMPI_Comm_split(495)................: MPI_Comm_split(comm=0xc4000012, color=0, key=2, new_comm=0x7ffd69f97248) failed
PMPI_Comm_split(477)................: 
MPIR_Comm_split_impl(246)...........: 
MPIR_Get_contextid_sparse_group(602): Too many communicators (0/32768 free on this process; ignore_id=0)
Abort(874073871) on node 6 (rank 6 in comm 0): Fatal error in PMPI_Comm_split: Other MPI error, error stack:
PMPI_Comm_split(495)................: MPI_Comm_split(comm=0xc4000012, color=1, key=0, new_comm=0x7ffecf74ddc8) failed
PMPI_Comm_split(477)................: 
MPIR_Comm_split_impl(246)...........: 
MPIR_Get_contextid_sparse_group(602): Too many communicators (32746/32768 free on this process; ignore_id=0)
Abort(605638415) on node 8 (rank 8 in comm 0): Fatal error in PMPI_Comm_split: Other MPI error, error stack:
PMPI_Comm_split(495)................: MPI_Comm_split(comm=0xc4000012, color=1, key=1, new_comm=0x7ffc6d5ccc48) failed
PMPI_Comm_split(477)................: 
MPIR_Comm_split_impl(246)...........: 
MPIR_Get_contextid_sparse_group(602): Too many communicators (32746/32768 free on this process; ignore_id=0)
Abort(68767503) on node 10 (rank 10 in comm 0): Fatal error in PMPI_Comm_split: Other MPI error, error stack:
PMPI_Comm_split(495)................: MPI_Comm_split(comm=0xc4000012, color=1, key=2, new_comm=0x7ffe0c3b0fc8) failed
PMPI_Comm_split(477)................: 
MPIR_Comm_split_impl(246)...........: 
MPIR_Get_contextid_sparse_group(602): Too many communicators (32746/32768 free on this process; ignore_id=0)
Abort(68767503) on node 12 (rank 12 in comm 0): Fatal error in PMPI_Comm_split: Other MPI error, error stack:
PMPI_Comm_split(495)................: MPI_Comm_split(comm=0xc4000012, color=2, key=0, new_comm=0x7ffdd494b9c8) failed
PMPI_Comm_split(477)................: 
MPIR_Comm_split_impl(246)...........: 
MPIR_Get_contextid_sparse_group(602): Too many communicators (32746/32768 free on this process; ignore_id=0)
Abort(538529551) on node 14 (rank 14 in comm 0): Fatal error in PMPI_Comm_split: Other MPI error, error stack:
PMPI_Comm_split(495)................: MPI_Comm_split(comm=0xc4000012, color=2, key=1, new_comm=0x7ffe5a4dc4c8) failed
PMPI_Comm_split(477)................: 
MPIR_Comm_split_impl(246)...........: 
MPIR_Get_contextid_sparse_group(602): Too many communicators (32746/32768 free on this process; ignore_id=0)
Abort(404311823) on node 16 (rank 16 in comm 0): Fatal error in PMPI_Comm_split: Other MPI error, error stack:
PMPI_Comm_split(495)................: MPI_Comm_split(comm=0xc4000012, color=2, key=2, new_comm=0x7ffc26b42348) failed
PMPI_Comm_split(477)................: 
MPIR_Comm_split_impl(246)...........: 
MPIR_Get_contextid_sparse_group(602): Too many communicators (32746/32768 free on this process; ignore_id=0)
Command exited with non-zero status 15
real 1874.37
user 34042.80
sys 1779.32
