Module for intel-oneAPI 2021.4 loaded.
 
:: initializing oneAPI environment ...
   3071194: BASH_VERSION = 4.4.20(1)-release
:: advisor -- latest
:: ccl -- latest
:: clck -- latest
:: compiler -- latest
:: dal -- latest
:: debugger -- latest
:: dev-utilities -- latest
:: dnnl -- latest
:: dpcpp-ct -- latest
:: dpl -- latest
:: inspector -- latest
:: intelpython -- latest
:: ipp -- latest
:: ippcp -- latest
:: ipp -- latest
:: itac -- latest
:: LPOT -- latest
:: mkl -- latest
:: modelzoo -- latest
:: mpi -- latest
:: pytorch -- latest
:: tbb -- latest
:: tensorflow -- latest
:: vpl -- latest
:: vtune -- latest
:: oneAPI environment initialized ::
 

     Program PWSCF v.7.0 starts on 27Jun2022 at 18:57:10 

     This program is part of the open-source Quantum ESPRESSO suite
     for quantum simulation of materials; please cite
         "P. Giannozzi et al., J. Phys.:Condens. Matter 21 395502 (2009);
         "P. Giannozzi et al., J. Phys.:Condens. Matter 29 465901 (2017);
         "P. Giannozzi et al., J. Chem. Phys. 152 154105 (2020);
          URL http://www.quantum-espresso.org", 
     in publications or presentations arising from this work. More details at
     http://www.quantum-espresso.org/quote

     Parallel version (MPI), running on    28 processors

     MPI processes distributed on     2 nodes
     R & G space division:  proc/nbgrp/npool/nimage =      28
     59715 MiB available memory on the printing compute node when the environment starts
 
     Reading input from in_files/silicon_ph_bench_nd_9_n_procs_28_1.scf

     Current dimensions of program PWSCF are:
     Max number of different atomic species (ntypx) = 10
     Max number of k-points (npk) =  40000
     Max angular momentum in pseudopotentials (lmaxx) =  4

     Subspace diagonalization in iterative solution of the eigenvalue problem:
     one sub-group per band group will be used
     scalapack distributed-memory algorithm (size of sub-group:  3*  3 procs)

 
     Parallelization info
     --------------------
     sticks:   dense  smooth     PW     G-vecs:    dense   smooth      PW
     Min          35      35     10                  744      744     122
     Max          36      36     11                  747      747     126
     Sum        1003    1003    301                20875    20875    3479
 
     Using Slab Decomposition
 


     bravais-lattice index     =            2
     lattice parameter (alat)  =      10.1899  a.u.
     unit-cell volume          =     264.5151 (a.u.)^3
     number of atoms/cell      =            2
     number of atomic types    =            1
     number of electrons       =         8.00
     number of Kohn-Sham states=            4
     kinetic-energy cutoff     =      70.0000  Ry
     charge density cutoff     =     280.0000  Ry
     scf convergence threshold =      1.0E-10
     mixing beta               =       0.7000
     number of iterations used =            8  plain     mixing
     Exchange-correlation= SLA  PW   NOGX NOGC
                           (   1   4   0   0   0   0   0)

     celldm(1)=  10.189905  celldm(2)=   0.000000  celldm(3)=   0.000000
     celldm(4)=   0.000000  celldm(5)=   0.000000  celldm(6)=   0.000000

     crystal axes: (cart. coord. in units of alat)
               a(1) = (  -0.500000   0.000000   0.500000 )  
               a(2) = (   0.000000   0.500000   0.500000 )  
               a(3) = (  -0.500000   0.500000   0.000000 )  

     reciprocal axes: (cart. coord. in units 2 pi/alat)
               b(1) = ( -1.000000 -1.000000  1.000000 )  
               b(2) = (  1.000000  1.000000  1.000000 )  
               b(3) = ( -1.000000  1.000000 -1.000000 )  


     PseudoPot. # 1 for Si read from file:
     ./pseudos/Si.nc.UPF
     MD5 check sum: 9e2d726316af3d4752eea8ab0afbb951
     Pseudo is Norm-conserving + core correction, Zval =  4.0
     Generated using ONCVPSP code by D. R. Hamann
     Using radial grid of 1510 points,  6 beta functions with: 
                l(1) =   0
                l(2) =   0
                l(3) =   1
                l(4) =   1
                l(5) =   2
                l(6) =   2

     atomic species   valence    mass     pseudopotential
        Si             4.00    28.08550     Si( 1.00)

     48 Sym. Ops., with inversion, found (24 have fractional translation)



   Cartesian axes

     site n.     atom                  positions (alat units)
         1           Si  tau(   1) = (   0.0000000   0.0000000   0.0000000  )
         2           Si  tau(   2) = (  -0.2500000   0.2500000   0.2500000  )

     number of k points=    28
                       cart. coord. in units 2pi/alat
        k(    1) = (  -0.0833333   0.0833333   0.0833333), wk =   0.0185185
        k(    2) = (  -0.2500000   0.2500000  -0.0833333), wk =   0.0555556
        k(    3) = (  -0.4166667   0.4166667  -0.2500000), wk =   0.0555556
        k(    4) = (   0.4166667  -0.4166667   0.5833333), wk =   0.0555556
        k(    5) = (   0.2500000  -0.2500000   0.4166667), wk =   0.0555556
        k(    6) = (   0.0833333  -0.0833333   0.2500000), wk =   0.0555556
        k(    7) = (  -0.0833333   0.4166667   0.0833333), wk =   0.0555556
        k(    8) = (  -0.2500000   0.5833333  -0.0833333), wk =   0.1111111
        k(    9) = (   0.5833333  -0.2500000   0.7500000), wk =   0.1111111
        k(   10) = (   0.4166667  -0.0833333   0.5833333), wk =   0.1111111
        k(   11) = (   0.2500000   0.0833333   0.4166667), wk =   0.1111111
        k(   12) = (  -0.0833333   0.7500000   0.0833333), wk =   0.0555556
        k(   13) = (   0.7500000  -0.0833333   0.9166667), wk =   0.1111111
        k(   14) = (   0.5833333   0.0833333   0.7500000), wk =   0.1111111
        k(   15) = (   0.4166667   0.2500000   0.5833333), wk =   0.1111111
        k(   16) = (  -0.0833333  -0.9166667   0.0833333), wk =   0.0555556
        k(   17) = (  -0.2500000  -0.7500000  -0.0833333), wk =   0.1111111
        k(   18) = (  -0.0833333  -0.5833333   0.0833333), wk =   0.0555556
        k(   19) = (  -0.2500000   0.2500000   0.2500000), wk =   0.0185185
        k(   20) = (  -0.4166667   0.4166667   0.0833333), wk =   0.0555556
        k(   21) = (   0.4166667  -0.4166667   0.9166667), wk =   0.0555556
        k(   22) = (   0.2500000  -0.2500000   0.7500000), wk =   0.0555556
        k(   23) = (  -0.2500000   0.5833333   0.2500000), wk =   0.0555556
        k(   24) = (   0.5833333  -0.2500000   1.0833333), wk =   0.1111111
        k(   25) = (   0.4166667  -0.0833333   0.9166667), wk =   0.1111111
        k(   26) = (  -0.2500000  -1.0833333   0.2500000), wk =   0.0555556
        k(   27) = (  -0.4166667   0.4166667   0.4166667), wk =   0.0185185
        k(   28) = (   0.4166667  -0.4166667   1.2500000), wk =   0.0555556

     Dense  grid:    20875 G-vectors     FFT dimensions: (  40,  40,  40)

     Estimated max dynamical RAM per process >       2.11 MB

     Estimated total dynamical RAM >      59.21 MB

     Initial potential from superposition of free atoms

     starting charge       7.9989, renormalised to       8.0000
     Starting wfcs are    8 randomized atomic wfcs

     total cpu time spent up to now is        0.3 secs

     Self-consistent Calculation

     iteration #  1     ecut=    70.00 Ry     beta= 0.70
     Davidson diagonalization with overlap
     ethr =  1.00E-02,  avg # of iterations =  2.0

     Threshold (ethr) on eigenvalues was too large:
     Diagonalizing with lowered threshold

     Davidson diagonalization with overlap
     ethr =  6.12E-04,  avg # of iterations =  2.0

     total cpu time spent up to now is        0.7 secs

     total energy              =     -17.04762302 Ry
     estimated scf accuracy    <       0.05797262 Ry

     iteration #  2     ecut=    70.00 Ry     beta= 0.70
     Davidson diagonalization with overlap
     ethr =  7.25E-04,  avg # of iterations =  1.0

     total cpu time spent up to now is        0.8 secs

     total energy              =     -17.04995156 Ry
     estimated scf accuracy    <       0.00249782 Ry

     iteration #  3     ecut=    70.00 Ry     beta= 0.70
     Davidson diagonalization with overlap
     ethr =  3.12E-05,  avg # of iterations =  3.0

     total cpu time spent up to now is        1.1 secs

     total energy              =     -17.05082808 Ry
     estimated scf accuracy    <       0.00009833 Ry

     iteration #  4     ecut=    70.00 Ry     beta= 0.70
     Davidson diagonalization with overlap
     ethr =  1.23E-06,  avg # of iterations =  4.4

     total cpu time spent up to now is        1.4 secs

     total energy              =     -17.05089836 Ry
     estimated scf accuracy    <       0.00000362 Ry

     iteration #  5     ecut=    70.00 Ry     beta= 0.70
     Davidson diagonalization with overlap
     ethr =  4.52E-08,  avg # of iterations =  4.1

     total cpu time spent up to now is        1.7 secs

     total energy              =     -17.05090098 Ry
     estimated scf accuracy    <       0.00000013 Ry

     iteration #  6     ecut=    70.00 Ry     beta= 0.70
     Davidson diagonalization with overlap
     ethr =  1.60E-09,  avg # of iterations =  4.0

     total cpu time spent up to now is        2.0 secs

     total energy              =     -17.05090106 Ry
     estimated scf accuracy    <       0.00000001 Ry

     iteration #  7     ecut=    70.00 Ry     beta= 0.70
     Davidson diagonalization with overlap
     ethr =  1.57E-10,  avg # of iterations =  3.3

     total cpu time spent up to now is        2.2 secs

     total energy              =     -17.05090107 Ry
     estimated scf accuracy    <          2.2E-10 Ry

     iteration #  8     ecut=    70.00 Ry     beta= 0.70
     Davidson diagonalization with overlap
     ethr =  2.81E-12,  avg # of iterations =  5.0

     total cpu time spent up to now is        2.6 secs

     End of self-consistent calculation

          k =-0.0833 0.0833 0.0833 (  2667 PWs)   bands (ev):

    -5.7561   5.3866   6.1106   6.1106

          k =-0.2500 0.2500-0.0833 (  2621 PWs)   bands (ev):

    -5.2692   3.2786   4.8359   5.9020

          k =-0.4167 0.4167-0.2500 (  2618 PWs)   bands (ev):

    -4.1491   0.4558   4.3704   5.2525

          k = 0.4167-0.4167 0.5833 (  2604 PWs)   bands (ev):

    -3.4239  -0.7236   4.4440   4.8611

          k = 0.2500-0.2500 0.4167 (  2618 PWs)   bands (ev):

    -4.5726   1.3222   4.9163   4.9542

          k = 0.0833-0.0833 0.2500 (  2643 PWs)   bands (ev):

    -5.5104   4.3092   5.4446   5.6431

          k =-0.0833 0.4167 0.0833 (  2627 PWs)   bands (ev):

    -5.0231   3.1094   4.6844   4.6977

          k =-0.2500 0.5833-0.0833 (  2613 PWs)   bands (ev):

    -4.0918   1.2428   3.3199   4.3008

          k = 0.5833-0.2500 0.7500 (  2616 PWs)   bands (ev):

    -2.9383  -0.5645   2.7090   4.0651

          k = 0.4167-0.0833 0.5833 (  2617 PWs)   bands (ev):

    -3.6856   0.5301   2.6549   4.5685

          k = 0.2500 0.0833 0.4167 (  2624 PWs)   bands (ev):

    -4.7922   2.2460   4.0374   5.2604

          k =-0.0833 0.7500 0.0833 (  2617 PWs)   bands (ev):

    -3.3665   0.4197   3.2861   3.6484

          k = 0.7500-0.0833 0.9167 (  2608 PWs)   bands (ev):

    -2.1400  -0.9430   2.4039   3.2176

          k = 0.5833 0.0833 0.7500 (  2608 PWs)   bands (ev):

    -2.5100  -0.6178   1.9048   3.7798

          k = 0.4167 0.2500 0.5833 (  2622 PWs)   bands (ev):

    -3.5664  -0.1968   3.6416   4.6730

          k =-0.0833-0.9167 0.0833 (  2604 PWs)   bands (ev):

    -2.2385  -0.9535   3.0091   3.4290

          k =-0.2500-0.7500-0.0833 (  2615 PWs)   bands (ev):

    -3.1914   0.1893   2.7413   3.5674

          k =-0.0833-0.5833 0.0833 (  2620 PWs)   bands (ev):

    -4.3033   1.8031   3.8479   4.0788

          k =-0.2500 0.2500 0.2500 (  2632 PWs)   bands (ev):

    -5.0343   2.2730   5.4857   5.4857

          k =-0.4167 0.4167 0.0833 (  2620 PWs)   bands (ev):

    -4.3392   1.3430   3.2813   5.3165

          k = 0.4167-0.4167 0.9167 (  2613 PWs)   bands (ev):

    -3.1274  -0.1140   2.1361   4.5076

          k = 0.2500-0.2500 0.7500 (  2618 PWs)   bands (ev):

    -3.0762  -0.1941   2.6355   4.0115

          k =-0.2500 0.5833 0.2500 (  2613 PWs)   bands (ev):

    -3.9042   0.5132   3.7736   4.3933

          k = 0.5833-0.2500 1.0833 (  2619 PWs)   bands (ev):

    -2.8765  -0.2149   2.2381   3.5571

          k = 0.4167-0.0833 0.9167 (  2613 PWs)   bands (ev):

    -2.0245  -0.9506   2.0592   2.8637

          k =-0.2500-1.0833 0.2500 (  2605 PWs)   bands (ev):

    -2.2385  -0.8649   1.9289   3.8127

          k =-0.4167 0.4167 0.4167 (  2602 PWs)   bands (ev):

    -3.8074  -0.3119   5.0941   5.0941

          k = 0.4167-0.4167 1.2500 (  2605 PWs)   bands (ev):

    -3.1840  -0.6106   3.2018   4.6388

     highest occupied level (ev):     6.1106

!    total energy              =     -17.05090107 Ry
     estimated scf accuracy    <          1.0E-13 Ry

     The total energy is the sum of the following terms:
     one-electron contribution =       5.01080643 Ry
     hartree contribution      =       1.07710394 Ry
     xc contribution           =      -6.22231016 Ry
     ewald contribution        =     -16.91650128 Ry

     convergence has been achieved in   8 iterations

     Forces acting on atoms (cartesian axes, Ry/au):

     atom    1 type  1   force =    -0.00000000   -0.00000000   -0.00000000
     atom    2 type  1   force =     0.00000000    0.00000000    0.00000000

     Total force =     0.000000     Total SCF correction =     0.000000

     Writing all to output data dir /fastscratch/tsievers/QE_TMP_DIR/silicon_ph_bench_nd_9_n_procs_28_1.save/
 
     init_run     :      0.11s CPU      0.16s WALL (       1 calls)
     electrons    :      2.24s CPU      2.31s WALL (       1 calls)
     forces       :      0.01s CPU      0.01s WALL (       1 calls)

     Called by init_run:
     wfcinit      :      0.10s CPU      0.10s WALL (       1 calls)
     potinit      :      0.00s CPU      0.00s WALL (       1 calls)
     hinit0       :      0.01s CPU      0.05s WALL (       1 calls)

     Called by electrons:
     c_bands      :      2.09s CPU      2.12s WALL (       9 calls)
     sum_band     :      0.15s CPU      0.15s WALL (       9 calls)
     v_of_rho     :      0.00s CPU      0.00s WALL (       9 calls)
     mix_rho      :      0.00s CPU      0.00s WALL (       9 calls)

     Called by c_bands:
     init_us_2    :      0.02s CPU      0.02s WALL (     560 calls)
     init_us_2:cp :      0.02s CPU      0.02s WALL (     560 calls)
     cegterg      :      2.00s CPU      2.03s WALL (     252 calls)

     Called by *egterg:
     cdiaghg      :      0.67s CPU      0.68s WALL (    1033 calls)
     h_psi        :      1.01s CPU      1.02s WALL (    1089 calls)
     g_psi        :      0.00s CPU      0.00s WALL (     809 calls)

     Called by h_psi:
     h_psi:calbec :      0.05s CPU      0.05s WALL (    1089 calls)
     vloc_psi     :      0.93s CPU      0.94s WALL (    1089 calls)
     add_vuspsi   :      0.02s CPU      0.02s WALL (    1089 calls)

     General routines
     calbec       :      0.05s CPU      0.06s WALL (    1201 calls)
     fft          :      0.01s CPU      0.04s WALL (      31 calls)
     ffts         :      0.00s CPU      0.00s WALL (       9 calls)
     fftw         :      1.02s CPU      1.04s WALL (    8174 calls)
 
     Parallel routines
 
     PWSCF        :      2.44s CPU      2.85s WALL

 
   This run was terminated on:  18:57:13  27Jun2022            

=------------------------------------------------------------------------------=
   JOB DONE.
=------------------------------------------------------------------------------=

     Program PHONON v.7.0 starts on 27Jun2022 at 18:57:16 

     This program is part of the open-source Quantum ESPRESSO suite
     for quantum simulation of materials; please cite
         "P. Giannozzi et al., J. Phys.:Condens. Matter 21 395502 (2009);
         "P. Giannozzi et al., J. Phys.:Condens. Matter 29 465901 (2017);
         "P. Giannozzi et al., J. Chem. Phys. 152 154105 (2020);
          URL http://www.quantum-espresso.org", 
     in publications or presentations arising from this work. More details at
     http://www.quantum-espresso.org/quote

     Parallel version (MPI), running on    28 processors

     MPI processes distributed on     2 nodes
     R & G space division:  proc/nbgrp/npool/nimage =      28
     59707 MiB available memory on the printing compute node when the environment starts
 
     Reading input from in_files/silicon_ph_bench_nd_9_n_procs_28_1.ph
      Title line not specified: using 'default'.

     Reading xml data from directory:

     /fastscratch/tsievers/QE_TMP_DIR/silicon_ph_bench_nd_9_n_procs_28_1.save/

     IMPORTANT: XC functional enforced from input :
     Exchange-correlation= PW
                           (   1   4   0   0   0   0   0)
     Any further DFT definition will be discarded
     Please, verify this is what you really want

 
     Parallelization info
     --------------------
     sticks:   dense  smooth     PW     G-vecs:    dense   smooth      PW
     Min          35      35     10                  744      744     122
     Max          36      36     11                  747      747     126
     Sum        1003    1003    301                20875    20875    3479
 
     Using Slab Decomposition
 
     Reading collected, re-writing distributed wavefunctions


     Dynamical matrices for ( 6, 6, 6)  uniform grid of q-points
     (  16 q-points):
       N         xq(1)         xq(2)         xq(3) 
       1   0.000000000   0.000000000   0.000000000
       2  -0.166666667   0.166666667  -0.166666667
       3  -0.333333333   0.333333333  -0.333333333
       4   0.500000000  -0.500000000   0.500000000
       5   0.000000000   0.333333333   0.000000000
       6  -0.166666667   0.500000000  -0.166666667
       7   0.666666667  -0.333333333   0.666666667
       8   0.500000000  -0.166666667   0.500000000
       9   0.333333333   0.000000000   0.333333333
      10   0.000000000   0.666666667   0.000000000
      11   0.833333333  -0.166666667   0.833333333
      12   0.666666667  -0.000000000   0.666666667
      13   0.000000000  -1.000000000   0.000000000
      14   0.666666667  -0.333333333   1.000000000
      15   0.500000000  -0.166666667   0.833333333
      16  -0.333333333  -1.000000000   0.000000000

     Calculation of q =    0.0000000   0.0000000   0.0000000

     default                                                                    

     bravais-lattice index     =            2
     lattice parameter (alat)  =      10.1899  a.u.
     unit-cell volume          =     264.5151 (a.u.)^3
     number of atoms/cell      =            2
     number of atomic types    =            1
     kinetic-energy cut-off    =      70.0000  Ry
     charge density cut-off    =     280.0000  Ry
     convergence threshold     =      1.0E-15
     beta                      =       0.7000
     number of iterations used =            4
     Exchange-correlation= PW
                           (   1   4   0   0   0   0   0)


     celldm(1)=   10.18990  celldm(2)=    0.00000  celldm(3)=    0.00000
     celldm(4)=    0.00000  celldm(5)=    0.00000  celldm(6)=    0.00000

     crystal axes: (cart. coord. in units of alat)
               a(1) = ( -0.5000  0.0000  0.5000 )  
               a(2) = (  0.0000  0.5000  0.5000 )  
               a(3) = ( -0.5000  0.5000  0.0000 )  

     reciprocal axes: (cart. coord. in units 2 pi/alat)
               b(1) = ( -1.0000 -1.0000  1.0000 )  
               b(2) = (  1.0000  1.0000  1.0000 )  
               b(3) = ( -1.0000  1.0000 -1.0000 )  


     Atoms inside the unit cell: 

     Cartesian axes

     site n.  atom      mass           positions (alat units)
        1     Si  28.0855   tau(    1) = (    0.00000    0.00000    0.00000  )
        2     Si  28.0855   tau(    2) = (   -0.25000    0.25000    0.25000  )

     Computing dynamical matrix for 
                    q = (   0.0000000   0.0000000   0.0000000 )
 
     49 Sym.Ops. (with q -> -q+G )


     G cutoff =  736.4420  (    747 G-vectors)     FFT grid: ( 40, 40, 40)
     number of k points=    28

     PseudoPot. # 1 for Si read from file:
     ./pseudos/Si.nc.UPF
     MD5 check sum: 9e2d726316af3d4752eea8ab0afbb951
     Pseudo is Norm-conserving + core correction, Zval =  4.0
     Generated using ONCVPSP code by D. R. Hamann
     Using radial grid of 1510 points,  6 beta functions with: 
                l(1) =   0
                l(2) =   0
                l(3) =   1
                l(4) =   1
                l(5) =   2
                l(6) =   2

     Mode symmetry, O_h (m-3m)  point group:


     Electric field:
     Dielectric constant
     Born effective charges in two ways 


     Atomic displacements:
     There are    2 irreducible representations

     Representation     1      3 modes -  To be done

     Representation     2      3 modes -  To be done



     Alpha used in Ewald sum =   2.8000
     PHONON       :      0.21s CPU      0.40s WALL


     Electric Fields Calculation

      iter #   1 total cpu time :     3.7 secs   av.it.:   6.5
      thresh= 1.000E-02 alpha_mix =  0.700 |ddv_scf|^2 =  5.870E-08

      iter #   2 total cpu time :     5.5 secs   av.it.:  12.0
      thresh= 2.423E-05 alpha_mix =  0.700 |ddv_scf|^2 =  2.516E-09

      iter #   3 total cpu time :     7.3 secs   av.it.:  11.9
      thresh= 5.016E-06 alpha_mix =  0.700 |ddv_scf|^2 =  2.836E-11

      iter #   4 total cpu time :     9.2 secs   av.it.:  12.2
      thresh= 5.325E-07 alpha_mix =  0.700 |ddv_scf|^2 =  1.682E-13

      iter #   5 total cpu time :    10.8 secs   av.it.:  11.2
      thresh= 4.101E-08 alpha_mix =  0.700 |ddv_scf|^2 =  6.178E-17

     End of electric fields calculation

          Dielectric constant in cartesian axis 

          (      13.311779148       0.000000000       0.000000000 )
          (       0.000000000      13.311779148      -0.000000000 )
          (       0.000000000      -0.000000000      13.311779148 )

          Effective charges (d Force / dE) in cartesian axis without acoustic sum rule applied (asr)

           atom      1   Si Mean Z*:       -0.00672
      Ex  (       -0.00672       -0.00000        0.00000 )
      Ey  (       -0.00000       -0.00672       -0.00000 )
      Ez  (        0.00000       -0.00000       -0.00672 )
           atom      2   Si Mean Z*:       -0.00672
      Ex  (       -0.00672        0.00000       -0.00000 )
      Ey  (       -0.00000       -0.00672        0.00000 )
      Ez  (        0.00000        0.00000       -0.00672 )

          Effective charges Sum: Mean:       -0.01343
             -0.01343       -0.00000        0.00000
             -0.00000       -0.01343       -0.00000
              0.00000       -0.00000       -0.01343

          Effective charges (d Force / dE) in cartesian axis with asr applied: 
           atom      1   Si Mean Z*:        0.00000
      E*x (        0.00000       -0.00000        0.00000 )
      E*y (        0.00000        0.00000       -0.00000 )
      E*z (        0.00000       -0.00000        0.00000 )
           atom      2   Si Mean Z*:       -0.00000
      E*x (       -0.00000        0.00000       -0.00000 )
      E*y (       -0.00000       -0.00000        0.00000 )
      E*z (       -0.00000        0.00000       -0.00000 )


     Representation #   1 modes #   1   2   3

     Self-consistent Calculation

      iter #   1 total cpu time :    12.4 secs   av.it.:   5.8
      thresh= 1.000E-02 alpha_mix =  0.700 |ddv_scf|^2 =  8.462E-09

      iter #   2 total cpu time :    14.7 secs   av.it.:  12.0
      thresh= 9.199E-06 alpha_mix =  0.700 |ddv_scf|^2 =  1.902E-10

      iter #   3 total cpu time :    16.5 secs   av.it.:  12.0
      thresh= 1.379E-06 alpha_mix =  0.700 |ddv_scf|^2 =  7.098E-12

      iter #   4 total cpu time :    18.4 secs   av.it.:  11.8
      thresh= 2.664E-07 alpha_mix =  0.700 |ddv_scf|^2 =  2.299E-14

      iter #   5 total cpu time :    20.1 secs   av.it.:  12.1
      thresh= 1.516E-08 alpha_mix =  0.700 |ddv_scf|^2 =  1.068E-16

     End of self-consistent calculation

     Convergence has been achieved 


     Representation #   2 modes #   4   5   6

     Self-consistent Calculation

      iter #   1 total cpu time :    21.4 secs   av.it.:   6.0
      thresh= 1.000E-02 alpha_mix =  0.700 |ddv_scf|^2 =  6.108E-09

      iter #   2 total cpu time :    23.3 secs   av.it.:  12.2
      thresh= 7.815E-06 alpha_mix =  0.700 |ddv_scf|^2 =  2.196E-10

      iter #   3 total cpu time :    25.2 secs   av.it.:  12.1
      thresh= 1.482E-06 alpha_mix =  0.700 |ddv_scf|^2 =  9.998E-12

      iter #   4 total cpu time :    27.0 secs   av.it.:  12.1
      thresh= 3.162E-07 alpha_mix =  0.700 |ddv_scf|^2 =  1.790E-14

      iter #   5 total cpu time :    28.8 secs   av.it.:  12.2
      thresh= 1.338E-08 alpha_mix =  0.700 |ddv_scf|^2 =  4.850E-17

     End of self-consistent calculation

     Convergence has been achieved 
 
     Number of q in the star =    1
     List of q in the star:
          1   0.000000000   0.000000000   0.000000000

          Dielectric constant in cartesian axis 

          (      13.311779148       0.000000000       0.000000000 )
          (       0.000000000      13.311779148      -0.000000000 )
          (       0.000000000      -0.000000000      13.311779148 )

          Effective charges (d Force / dE) in cartesian axis without acoustic sum rule applied (asr)

           atom      1   Si Mean Z*:       -0.00672
      Ex  (       -0.00672       -0.00000        0.00000 )
      Ey  (       -0.00000       -0.00672       -0.00000 )
      Ez  (        0.00000       -0.00000       -0.00672 )
           atom      2   Si Mean Z*:       -0.00672
      Ex  (       -0.00672        0.00000       -0.00000 )
      Ey  (       -0.00000       -0.00672        0.00000 )
      Ez  (        0.00000        0.00000       -0.00672 )

          Effective charges Sum: Mean:       -0.01343
             -0.01343       -0.00000        0.00000
             -0.00000       -0.01343       -0.00000
              0.00000       -0.00000       -0.01343

          Effective charges (d Force / dE) in cartesian axis with asr applied: 
           atom      1   Si Mean Z*:        0.00000
      E*x (        0.00000       -0.00000        0.00000 )
      E*y (        0.00000        0.00000       -0.00000 )
      E*z (        0.00000       -0.00000        0.00000 )
           atom      2   Si Mean Z*:       -0.00000
      E*x (       -0.00000        0.00000       -0.00000 )
      E*y (       -0.00000       -0.00000        0.00000 )
      E*z (       -0.00000        0.00000       -0.00000 )

          Effective charges (d P / du) in cartesian axis 

           atom      1   Si 
      Px  (       -0.00679        0.00000        0.00000 )
      Py  (        0.00000       -0.00679       -0.00000 )
      Pz  (        0.00000       -0.00000       -0.00679 )
           atom      2   Si 
      Px  (       -0.00679        0.00000        0.00000 )
      Py  (        0.00000       -0.00679       -0.00000 )
      Pz  (        0.00000       -0.00000       -0.00679 )

     Diagonalizing the dynamical matrix

     q = (    0.000000000   0.000000000   0.000000000 ) 

 **************************************************************************
     freq (    1) =      -0.111791 [THz] =      -3.728953 [cm-1]
     freq (    2) =      -0.111791 [THz] =      -3.728953 [cm-1]
     freq (    3) =      -0.111791 [THz] =      -3.728953 [cm-1]
     freq (    4) =      15.412098 [THz] =     514.092248 [cm-1]
     freq (    5) =      15.412098 [THz] =     514.092248 [cm-1]
     freq (    6) =      15.412098 [THz] =     514.092248 [cm-1]
 **************************************************************************

     Mode symmetry, O_h (m-3m)  point group:

     freq (   1-   3) =         -3.7  [cm-1]   --> T_1u G_15  G_4- I  
     freq (   4-   6) =        514.1  [cm-1]   --> T_2g G_25' G_5+ R  

     Calculation of q =   -0.1666667   0.1666667  -0.1666667

     Subspace diagonalization in iterative solution of the eigenvalue problem:
     one sub-group per band group will be used
     scalapack distributed-memory algorithm (size of sub-group:  3*  3 procs)

 
     Parallelization info
     --------------------
     sticks:   dense  smooth     PW     G-vecs:    dense   smooth      PW
     Min          35      35     11                  744      744     130
     Max          36      36     12                  747      747     133
     Sum        1003    1003    313                20875    20875    3695
 
     Using Slab Decomposition
 

     Title: 
     default                                                                    


     bravais-lattice index     =            2
     lattice parameter (alat)  =      10.1899  a.u.
     unit-cell volume          =     264.5151 (a.u.)^3
     number of atoms/cell      =            2
     number of atomic types    =            1
     number of electrons       =         8.00
     number of Kohn-Sham states=            4
     kinetic-energy cutoff     =      70.0000  Ry
     charge density cutoff     =     280.0000  Ry
     Exchange-correlation= PW
                           (   1   4   0   0   0   0   0)

     celldm(1)=  10.189905  celldm(2)=   0.000000  celldm(3)=   0.000000
     celldm(4)=   0.000000  celldm(5)=   0.000000  celldm(6)=   0.000000

     crystal axes: (cart. coord. in units of alat)
               a(1) = (  -0.500000   0.000000   0.500000 )  
               a(2) = (   0.000000   0.500000   0.500000 )  
               a(3) = (  -0.500000   0.500000   0.000000 )  

     reciprocal axes: (cart. coord. in units 2 pi/alat)
               b(1) = ( -1.000000 -1.000000  1.000000 )  
               b(2) = (  1.000000  1.000000  1.000000 )  
               b(3) = ( -1.000000  1.000000 -1.000000 )  


     PseudoPot. # 1 for Si read from file:
     ./pseudos/Si.nc.UPF
     MD5 check sum: 9e2d726316af3d4752eea8ab0afbb951
     Pseudo is Norm-conserving + core correction, Zval =  4.0
     Generated using ONCVPSP code by D. R. Hamann
     Using radial grid of 1510 points,  6 beta functions with: 
                l(1) =   0
                l(2) =   0
                l(3) =   1
                l(4) =   1
                l(5) =   2
                l(6) =   2

     atomic species   valence    mass     pseudopotential
        Si             4.00    28.08550     Si( 1.00)

     48 Sym. Ops., with inversion, found



   Cartesian axes

     site n.     atom                  positions (alat units)
         1           Si  tau(   1) = (   0.0000000   0.0000000   0.0000000  )
         2           Si  tau(   2) = (  -0.2500000   0.2500000   0.2500000  )

     number of k points=   364

     Number of k-points >= 100: set verbosity='high' to print them.

     Dense  grid:    20875 G-vectors     FFT dimensions: (  40,  40,  40)

     Estimated max dynamical RAM per process >       1.78 MB

     Estimated total dynamical RAM >      49.76 MB

     The potential is recalculated from file :
     /fastscratch/tsievers/QE_TMP_DIR/_ph0/silicon_ph_bench_nd_9_n_procs_28_1.save/charge-density

     Starting wfcs are    8 atomic wfcs

     Band Structure Calculation
     Davidson diagonalization with overlap

     ethr =  1.25E-10,  avg # of iterations = 12.9

     total cpu time spent up to now is       12.9 secs

     End of band structure calculation

     Number of k-points >= 100: set verbosity='high' to print the bands.

     highest occupied level (ev):     6.1106

     Writing config to output data dir /fastscratch/tsievers/QE_TMP_DIR/_ph0/silicon_ph_bench_nd_9_n_procs_28_1.save/

     default                                                                    

     bravais-lattice index     =            2
     lattice parameter (alat)  =      10.1899  a.u.
     unit-cell volume          =     264.5151 (a.u.)^3
     number of atoms/cell      =            2
     number of atomic types    =            1
     kinetic-energy cut-off    =      70.0000  Ry
     charge density cut-off    =     280.0000  Ry
     convergence threshold     =      1.0E-15
     beta                      =       0.7000
     number of iterations used =            4
     Exchange-correlation= PW
                           (   1   4   0   0   0   0   0)


     celldm(1)=   10.18990  celldm(2)=    0.00000  celldm(3)=    0.00000
     celldm(4)=    0.00000  celldm(5)=    0.00000  celldm(6)=    0.00000

     crystal axes: (cart. coord. in units of alat)
               a(1) = ( -0.5000  0.0000  0.5000 )  
               a(2) = (  0.0000  0.5000  0.5000 )  
               a(3) = ( -0.5000  0.5000  0.0000 )  

     reciprocal axes: (cart. coord. in units 2 pi/alat)
               b(1) = ( -1.0000 -1.0000  1.0000 )  
               b(2) = (  1.0000  1.0000  1.0000 )  
               b(3) = ( -1.0000  1.0000 -1.0000 )  


     Atoms inside the unit cell: 

     Cartesian axes

     site n.  atom      mass           positions (alat units)
        1     Si  28.0855   tau(    1) = (    0.00000    0.00000    0.00000  )
        2     Si  28.0855   tau(    2) = (   -0.25000    0.25000    0.25000  )

     Computing dynamical matrix for 
                    q = (  -0.1666667   0.1666667  -0.1666667 )
 
      6 Sym.Ops. (no q -> -q+G )


     G cutoff =  736.4420  (    747 G-vectors)     FFT grid: ( 40, 40, 40)
     number of k points=   364

     PseudoPot. # 1 for Si read from file:
     ./pseudos/Si.nc.UPF
     MD5 check sum: 9e2d726316af3d4752eea8ab0afbb951
     Pseudo is Norm-conserving + core correction, Zval =  4.0
     Generated using ONCVPSP code by D. R. Hamann
     Using radial grid of 1510 points,  6 beta functions with: 
                l(1) =   0
                l(2) =   0
                l(3) =   1
                l(4) =   1
                l(5) =   2
                l(6) =   2

     Mode symmetry, C_3v (3m)   point group:


     Atomic displacements:
     There are    4 irreducible representations

     Representation     1      1 modes -  To be done

     Representation     2      1 modes -  To be done

     Representation     3      2 modes -  To be done

     Representation     4      2 modes -  To be done



     Alpha used in Ewald sum =   2.8000
     PHONON       :     39.10s CPU     42.88s WALL



     Representation #   1 mode #   1

     Self-consistent Calculation

      iter #   1 total cpu time :    45.0 secs   av.it.:   6.6
      thresh= 1.000E-02 alpha_mix =  0.700 |ddv_scf|^2 =  7.918E-04

      iter #   2 total cpu time :    47.9 secs   av.it.:   9.2
      thresh= 2.814E-03 alpha_mix =  0.700 |ddv_scf|^2 =  2.594E-02

      iter #   3 total cpu time :    50.4 secs   av.it.:   7.6
      thresh= 1.000E-02 alpha_mix =  0.700 |ddv_scf|^2 =  2.107E-07

      iter #   4 total cpu time :    53.1 secs   av.it.:   9.4
      thresh= 4.591E-05 alpha_mix =  0.700 |ddv_scf|^2 =  6.873E-09

      iter #   5 total cpu time :    56.3 secs   av.it.:   9.8
      thresh= 8.290E-06 alpha_mix =  0.700 |ddv_scf|^2 =  2.259E-10

      iter #   6 total cpu time :    59.0 secs   av.it.:   9.3
      thresh= 1.503E-06 alpha_mix =  0.700 |ddv_scf|^2 =  5.608E-10

      iter #   7 total cpu time :    61.4 secs   av.it.:   7.9
      thresh= 2.368E-06 alpha_mix =  0.700 |ddv_scf|^2 =  5.385E-11

      iter #   8 total cpu time :    64.1 secs   av.it.:   8.7
      thresh= 7.338E-07 alpha_mix =  0.700 |ddv_scf|^2 =  3.843E-13

      iter #   9 total cpu time :    66.7 secs   av.it.:   8.5
      thresh= 6.199E-08 alpha_mix =  0.700 |ddv_scf|^2 =  8.261E-15

      iter #  10 total cpu time :    69.3 secs   av.it.:   8.9
      thresh= 9.089E-09 alpha_mix =  0.700 |ddv_scf|^2 =  9.470E-16

     End of self-consistent calculation

     Convergence has been achieved 


     Representation #   2 mode #   2

     Self-consistent Calculation

      iter #   1 total cpu time :    71.6 secs   av.it.:   6.6
      thresh= 1.000E-02 alpha_mix =  0.700 |ddv_scf|^2 =  7.918E-04

      iter #   2 total cpu time :    74.3 secs   av.it.:   9.2
      thresh= 2.814E-03 alpha_mix =  0.700 |ddv_scf|^2 =  2.594E-02

      iter #   3 total cpu time :    78.3 secs   av.it.:   7.6
      thresh= 1.000E-02 alpha_mix =  0.700 |ddv_scf|^2 =  2.107E-07

      iter #   4 total cpu time :    81.1 secs   av.it.:   9.4
      thresh= 4.591E-05 alpha_mix =  0.700 |ddv_scf|^2 =  6.873E-09

      iter #   5 total cpu time :    83.9 secs   av.it.:   9.8
      thresh= 8.290E-06 alpha_mix =  0.700 |ddv_scf|^2 =  2.259E-10

      iter #   6 total cpu time :    86.6 secs   av.it.:   9.3
      thresh= 1.503E-06 alpha_mix =  0.700 |ddv_scf|^2 =  5.609E-10

      iter #   7 total cpu time :    89.0 secs   av.it.:   7.9
      thresh= 2.368E-06 alpha_mix =  0.700 |ddv_scf|^2 =  5.385E-11

      iter #   8 total cpu time :    91.7 secs   av.it.:   8.7
      thresh= 7.338E-07 alpha_mix =  0.700 |ddv_scf|^2 =  3.843E-13

      iter #   9 total cpu time :    94.3 secs   av.it.:   8.5
      thresh= 6.199E-08 alpha_mix =  0.700 |ddv_scf|^2 =  8.261E-15

      iter #  10 total cpu time :    96.9 secs   av.it.:   8.9
      thresh= 9.089E-09 alpha_mix =  0.700 |ddv_scf|^2 =  9.470E-16

     End of self-consistent calculation

     Convergence has been achieved 


     Representation #   3 modes #   3   4

     Self-consistent Calculation

      iter #   1 total cpu time :   100.9 secs   av.it.:   6.1
      thresh= 1.000E-02 alpha_mix =  0.700 |ddv_scf|^2 =  2.065E-08

      iter #   2 total cpu time :   109.4 secs   av.it.:  11.8
      thresh= 1.437E-05 alpha_mix =  0.700 |ddv_scf|^2 =  9.191E-10

      iter #   3 total cpu time :   115.9 secs   av.it.:  11.6
      thresh= 3.032E-06 alpha_mix =  0.700 |ddv_scf|^2 =  2.400E-11

      iter #   4 total cpu time :   122.4 secs   av.it.:  11.7
      thresh= 4.899E-07 alpha_mix =  0.700 |ddv_scf|^2 =  2.769E-13

      iter #   5 total cpu time :   128.9 secs   av.it.:  11.7
      thresh= 5.262E-08 alpha_mix =  0.700 |ddv_scf|^2 =  5.876E-15

      iter #   6 total cpu time :   135.4 secs   av.it.:  12.0
      thresh= 7.666E-09 alpha_mix =  0.700 |ddv_scf|^2 =  2.667E-17

     End of self-consistent calculation

     Convergence has been achieved 


     Representation #   4 modes #   5   6

     Self-consistent Calculation

      iter #   1 total cpu time :   140.3 secs   av.it.:   6.0
      thresh= 1.000E-02 alpha_mix =  0.700 |ddv_scf|^2 =  2.066E-08

      iter #   2 total cpu time :   146.9 secs   av.it.:  11.7
      thresh= 1.437E-05 alpha_mix =  0.700 |ddv_scf|^2 =  9.194E-10

      iter #   3 total cpu time :   153.4 secs   av.it.:  11.5
      thresh= 3.032E-06 alpha_mix =  0.700 |ddv_scf|^2 =  2.400E-11

      iter #   4 total cpu time :   159.9 secs   av.it.:  11.6
      thresh= 4.899E-07 alpha_mix =  0.700 |ddv_scf|^2 =  2.770E-13

      iter #   5 total cpu time :   166.3 secs   av.it.:  11.6
      thresh= 5.263E-08 alpha_mix =  0.700 |ddv_scf|^2 =  5.883E-15

      iter #   6 total cpu time :   174.0 secs   av.it.:  12.0
      thresh= 7.670E-09 alpha_mix =  0.700 |ddv_scf|^2 =  2.666E-17

     End of self-consistent calculation

     Convergence has been achieved 
 
     Number of q in the star =    8
     List of q in the star:
          1  -0.166666667   0.166666667  -0.166666667
          2   0.166666667   0.166666667   0.166666667
          3  -0.166666667  -0.166666667  -0.166666667
          4   0.166666667  -0.166666667   0.166666667
          5   0.166666667  -0.166666667  -0.166666667
          6   0.166666667   0.166666667  -0.166666667
          7  -0.166666667  -0.166666667   0.166666667
          8  -0.166666667   0.166666667   0.166666667

     Diagonalizing the dynamical matrix

     q = (   -0.166666667   0.166666667  -0.166666667 ) 

 **************************************************************************
     freq (    1) =       2.202748 [THz] =      73.475764 [cm-1]
     freq (    2) =       2.202748 [THz] =      73.475764 [cm-1]
     freq (    3) =       4.748490 [THz] =     158.392577 [cm-1]
     freq (    4) =      15.023984 [THz] =     501.146171 [cm-1]
     freq (    5) =      15.065887 [THz] =     502.543908 [cm-1]
     freq (    6) =      15.065887 [THz] =     502.543908 [cm-1]
 **************************************************************************

     Mode symmetry, C_3v (3m)   point group:

     freq (   1-   2) =         73.5  [cm-1]   --> E    L_3           
     freq (   3-   3) =        158.4  [cm-1]   --> A_1  L_1           
     freq (   4-   4) =        501.1  [cm-1]   --> A_1  L_1           
     freq (   5-   6) =        502.5  [cm-1]   --> E    L_3           

     Calculation of q =   -0.3333333   0.3333333  -0.3333333
 
     Parallelization info
     --------------------
     sticks:   dense  smooth     PW     G-vecs:    dense   smooth      PW
     Min          35      35     11                  744      744     136
     Max          36      36     12                  747      747     141
     Sum        1003    1003    313                20875    20875    3839
 
     Using Slab Decomposition
 

     Title: 
     default                                                                    


     bravais-lattice index     =            2
     lattice parameter (alat)  =      10.1899  a.u.
     unit-cell volume          =     264.5151 (a.u.)^3
     number of atoms/cell      =            2
     number of atomic types    =            1
     number of electrons       =         8.00
     number of Kohn-Sham states=            4
     kinetic-energy cutoff     =      70.0000  Ry
     charge density cutoff     =     280.0000  Ry
     Exchange-correlation= PW
                           (   1   4   0   0   0   0   0)

     celldm(1)=  10.189905  celldm(2)=   0.000000  celldm(3)=   0.000000
     celldm(4)=   0.000000  celldm(5)=   0.000000  celldm(6)=   0.000000

     crystal axes: (cart. coord. in units of alat)
               a(1) = (  -0.500000   0.000000   0.500000 )  
               a(2) = (   0.000000   0.500000   0.500000 )  
               a(3) = (  -0.500000   0.500000   0.000000 )  

     reciprocal axes: (cart. coord. in units 2 pi/alat)
               b(1) = ( -1.000000 -1.000000  1.000000 )  
               b(2) = (  1.000000  1.000000  1.000000 )  
               b(3) = ( -1.000000  1.000000 -1.000000 )  


     PseudoPot. # 1 for Si read from file:
     ./pseudos/Si.nc.UPF
     MD5 check sum: 9e2d726316af3d4752eea8ab0afbb951
     Pseudo is Norm-conserving + core correction, Zval =  4.0
     Generated using ONCVPSP code by D. R. Hamann
     Using radial grid of 1510 points,  6 beta functions with: 
                l(1) =   0
                l(2) =   0
                l(3) =   1
                l(4) =   1
                l(5) =   2
                l(6) =   2

     atomic species   valence    mass     pseudopotential
        Si             4.00    28.08550     Si( 1.00)

     48 Sym. Ops., with inversion, found



   Cartesian axes

     site n.     atom                  positions (alat units)
         1           Si  tau(   1) = (   0.0000000   0.0000000   0.0000000  )
         2           Si  tau(   2) = (  -0.2500000   0.2500000   0.2500000  )

     number of k points=   364

     Number of k-points >= 100: set verbosity='high' to print them.

     Dense  grid:    20875 G-vectors     FFT dimensions: (  40,  40,  40)

     Estimated max dynamical RAM per process >       1.79 MB

     Estimated total dynamical RAM >      50.14 MB

     The potential is recalculated from file :
     /fastscratch/tsievers/QE_TMP_DIR/_ph0/silicon_ph_bench_nd_9_n_procs_28_1.save/charge-density

     Starting wfcs are    8 atomic wfcs

     Band Structure Calculation
     Davidson diagonalization with overlap

     ethr =  1.25E-10,  avg # of iterations = 12.9

     total cpu time spent up to now is       26.1 secs

     End of band structure calculation

     Number of k-points >= 100: set verbosity='high' to print the bands.

     highest occupied level (ev):     6.1106

     Writing config to output data dir /fastscratch/tsievers/QE_TMP_DIR/_ph0/silicon_ph_bench_nd_9_n_procs_28_1.save/

     default                                                                    

     bravais-lattice index     =            2
     lattice parameter (alat)  =      10.1899  a.u.
     unit-cell volume          =     264.5151 (a.u.)^3
     number of atoms/cell      =            2
     number of atomic types    =            1
     kinetic-energy cut-off    =      70.0000  Ry
     charge density cut-off    =     280.0000  Ry
     convergence threshold     =      1.0E-15
     beta                      =       0.7000
     number of iterations used =            4
     Exchange-correlation= PW
                           (   1   4   0   0   0   0   0)


     celldm(1)=   10.18990  celldm(2)=    0.00000  celldm(3)=    0.00000
     celldm(4)=    0.00000  celldm(5)=    0.00000  celldm(6)=    0.00000

     crystal axes: (cart. coord. in units of alat)
               a(1) = ( -0.5000  0.0000  0.5000 )  
               a(2) = (  0.0000  0.5000  0.5000 )  
               a(3) = ( -0.5000  0.5000  0.0000 )  

     reciprocal axes: (cart. coord. in units 2 pi/alat)
               b(1) = ( -1.0000 -1.0000  1.0000 )  
               b(2) = (  1.0000  1.0000  1.0000 )  
               b(3) = ( -1.0000  1.0000 -1.0000 )  


     Atoms inside the unit cell: 

     Cartesian axes

     site n.  atom      mass           positions (alat units)
        1     Si  28.0855   tau(    1) = (    0.00000    0.00000    0.00000  )
        2     Si  28.0855   tau(    2) = (   -0.25000    0.25000    0.25000  )

     Computing dynamical matrix for 
                    q = (  -0.3333333   0.3333333  -0.3333333 )
 
      6 Sym.Ops. (no q -> -q+G )


     G cutoff =  736.4420  (    747 G-vectors)     FFT grid: ( 40, 40, 40)
     number of k points=   364

     PseudoPot. # 1 for Si read from file:
     ./pseudos/Si.nc.UPF
     MD5 check sum: 9e2d726316af3d4752eea8ab0afbb951
     Pseudo is Norm-conserving + core correction, Zval =  4.0
     Generated using ONCVPSP code by D. R. Hamann
     Using radial grid of 1510 points,  6 beta functions with: 
                l(1) =   0
                l(2) =   0
                l(3) =   1
                l(4) =   1
                l(5) =   2
                l(6) =   2

     Mode symmetry, C_3v (3m)   point group:


     Atomic displacements:
     There are    4 irreducible representations

     Representation     1      1 modes -  To be done

     Representation     2      1 modes -  To be done

     Representation     3      2 modes -  To be done

     Representation     4      2 modes -  To be done



     Alpha used in Ewald sum =   2.8000
     PHONON       :   2m53.98s CPU   3m 8.05s WALL



     Representation #   1 mode #   1

     Self-consistent Calculation

      iter #   1 total cpu time :   190.2 secs   av.it.:   6.5
      thresh= 1.000E-02 alpha_mix =  0.700 |ddv_scf|^2 =  5.013E-05

      iter #   2 total cpu time :   194.5 secs   av.it.:  10.0
      thresh= 7.081E-04 alpha_mix =  0.700 |ddv_scf|^2 =  4.001E-04

      iter #   3 total cpu time :   197.1 secs   av.it.:   8.6
      thresh= 2.000E-03 alpha_mix =  0.700 |ddv_scf|^2 =  7.367E-08

      iter #   4 total cpu time :   200.0 secs   av.it.:  10.2
      thresh= 2.714E-05 alpha_mix =  0.700 |ddv_scf|^2 =  1.497E-09

      iter #   5 total cpu time :   202.9 secs   av.it.:  10.2
      thresh= 3.869E-06 alpha_mix =  0.700 |ddv_scf|^2 =  1.576E-11

      iter #   6 total cpu time :   205.9 secs   av.it.:  10.7
      thresh= 3.969E-07 alpha_mix =  0.700 |ddv_scf|^2 =  1.275E-12

      iter #   7 total cpu time :   208.9 secs   av.it.:  10.6
      thresh= 1.129E-07 alpha_mix =  0.700 |ddv_scf|^2 =  1.020E-14

      iter #   8 total cpu time :   212.0 secs   av.it.:  10.5
      thresh= 1.010E-08 alpha_mix =  0.700 |ddv_scf|^2 =  2.298E-14

      iter #   9 total cpu time :   214.8 secs   av.it.:   9.2
      thresh= 1.516E-08 alpha_mix =  0.700 |ddv_scf|^2 =  3.833E-15

      iter #  10 total cpu time :   217.5 secs   av.it.:   9.5
      thresh= 6.191E-09 alpha_mix =  0.700 |ddv_scf|^2 =  1.242E-16

     End of self-consistent calculation

     Convergence has been achieved 


     Representation #   2 mode #   2

     Self-consistent Calculation

      iter #   1 total cpu time :   219.7 secs   av.it.:   6.5
      thresh= 1.000E-02 alpha_mix =  0.700 |ddv_scf|^2 =  5.013E-05

      iter #   2 total cpu time :   222.8 secs   av.it.:  10.0
      thresh= 7.081E-04 alpha_mix =  0.700 |ddv_scf|^2 =  4.001E-04

      iter #   3 total cpu time :   226.5 secs   av.it.:   8.6
      thresh= 2.000E-03 alpha_mix =  0.700 |ddv_scf|^2 =  7.367E-08

      iter #   4 total cpu time :   229.4 secs   av.it.:  10.2
      thresh= 2.714E-05 alpha_mix =  0.700 |ddv_scf|^2 =  1.497E-09

      iter #   5 total cpu time :   232.3 secs   av.it.:  10.2
      thresh= 3.869E-06 alpha_mix =  0.700 |ddv_scf|^2 =  1.576E-11

      iter #   6 total cpu time :   235.4 secs   av.it.:  10.7
      thresh= 3.969E-07 alpha_mix =  0.700 |ddv_scf|^2 =  1.275E-12

      iter #   7 total cpu time :   238.4 secs   av.it.:  10.6
      thresh= 1.129E-07 alpha_mix =  0.700 |ddv_scf|^2 =  1.008E-14

      iter #   8 total cpu time :   241.5 secs   av.it.:  10.5
      thresh= 1.004E-08 alpha_mix =  0.700 |ddv_scf|^2 =  2.203E-14

      iter #   9 total cpu time :   244.2 secs   av.it.:   9.2
      thresh= 1.484E-08 alpha_mix =  0.700 |ddv_scf|^2 =  3.878E-15

      iter #  10 total cpu time :   247.0 secs   av.it.:   9.5
      thresh= 6.227E-09 alpha_mix =  0.700 |ddv_scf|^2 =  1.220E-16

     End of self-consistent calculation

     Convergence has been achieved 


     Representation #   3 modes #   3   4

     Self-consistent Calculation

      iter #   1 total cpu time :   251.0 secs   av.it.:   6.1
      thresh= 1.000E-02 alpha_mix =  0.700 |ddv_scf|^2 =  2.813E-08

      iter #   2 total cpu time :   258.9 secs   av.it.:  11.7
      thresh= 1.677E-05 alpha_mix =  0.700 |ddv_scf|^2 =  1.948E-09

      iter #   3 total cpu time :   265.8 secs   av.it.:  11.5
      thresh= 4.414E-06 alpha_mix =  0.700 |ddv_scf|^2 =  2.821E-11

      iter #   4 total cpu time :   272.8 secs   av.it.:  11.7
      thresh= 5.312E-07 alpha_mix =  0.700 |ddv_scf|^2 =  2.830E-13

      iter #   5 total cpu time :   279.4 secs   av.it.:  11.6
      thresh= 5.320E-08 alpha_mix =  0.700 |ddv_scf|^2 =  5.508E-15

      iter #   6 total cpu time :   286.4 secs   av.it.:  12.0
      thresh= 7.422E-09 alpha_mix =  0.700 |ddv_scf|^2 =  3.754E-17

     End of self-consistent calculation

     Convergence has been achieved 


     Representation #   4 modes #   5   6

     Self-consistent Calculation

      iter #   1 total cpu time :   290.6 secs   av.it.:   6.1
      thresh= 1.000E-02 alpha_mix =  0.700 |ddv_scf|^2 =  2.814E-08

      iter #   2 total cpu time :   297.1 secs   av.it.:  11.6
      thresh= 1.677E-05 alpha_mix =  0.700 |ddv_scf|^2 =  1.951E-09

      iter #   3 total cpu time :   303.4 secs   av.it.:  11.4
      thresh= 4.417E-06 alpha_mix =  0.700 |ddv_scf|^2 =  2.820E-11

      iter #   4 total cpu time :   309.9 secs   av.it.:  11.6
      thresh= 5.310E-07 alpha_mix =  0.700 |ddv_scf|^2 =  2.831E-13

      iter #   5 total cpu time :   317.0 secs   av.it.:  11.6
      thresh= 5.320E-08 alpha_mix =  0.700 |ddv_scf|^2 =  5.505E-15

      iter #   6 total cpu time :   324.0 secs   av.it.:  12.0
      thresh= 7.419E-09 alpha_mix =  0.700 |ddv_scf|^2 =  3.748E-17

     End of self-consistent calculation

     Convergence has been achieved 
 
     Number of q in the star =    8
     List of q in the star:
          1  -0.333333333   0.333333333  -0.333333333
          2   0.333333333   0.333333333   0.333333333
          3  -0.333333333  -0.333333333  -0.333333333
          4   0.333333333  -0.333333333   0.333333333
          5   0.333333333  -0.333333333  -0.333333333
          6   0.333333333   0.333333333  -0.333333333
          7  -0.333333333  -0.333333333   0.333333333
          8  -0.333333333   0.333333333   0.333333333

     Diagonalizing the dynamical matrix

     q = (   -0.333333333   0.333333333  -0.333333333 ) 

 **************************************************************************
     freq (    1) =       3.044104 [THz] =     101.540371 [cm-1]
     freq (    2) =       3.044104 [THz] =     101.540371 [cm-1]
     freq (    3) =       8.747903 [THz] =     291.798648 [cm-1]
     freq (    4) =      13.857229 [THz] =     462.227394 [cm-1]
     freq (    5) =      14.763297 [THz] =     492.450591 [cm-1]
     freq (    6) =      14.763297 [THz] =     492.450591 [cm-1]
 **************************************************************************

     Mode symmetry, C_3v (3m)   point group:

     freq (   1-   2) =        101.5  [cm-1]   --> E    L_3           
     freq (   3-   3) =        291.8  [cm-1]   --> A_1  L_1           
     freq (   4-   4) =        462.2  [cm-1]   --> A_1  L_1           
     freq (   5-   6) =        492.5  [cm-1]   --> E    L_3           

     Calculation of q =    0.5000000  -0.5000000   0.5000000
 
     Parallelization info
     --------------------
     sticks:   dense  smooth     PW     G-vecs:    dense   smooth      PW
     Min          35      35     12                  744      744     143
     Max          36      36     13                  747      747     145
     Sum        1003    1003    337                20875    20875    4015
 
     Using Slab Decomposition
 

     Title: 
     default                                                                    


     bravais-lattice index     =            2
     lattice parameter (alat)  =      10.1899  a.u.
     unit-cell volume          =     264.5151 (a.u.)^3
     number of atoms/cell      =            2
     number of atomic types    =            1
     number of electrons       =         8.00
     number of Kohn-Sham states=            4
     kinetic-energy cutoff     =      70.0000  Ry
     charge density cutoff     =     280.0000  Ry
     Exchange-correlation= PW
                           (   1   4   0   0   0   0   0)

     celldm(1)=  10.189905  celldm(2)=   0.000000  celldm(3)=   0.000000
     celldm(4)=   0.000000  celldm(5)=   0.000000  celldm(6)=   0.000000

     crystal axes: (cart. coord. in units of alat)
               a(1) = (  -0.500000   0.000000   0.500000 )  
               a(2) = (   0.000000   0.500000   0.500000 )  
               a(3) = (  -0.500000   0.500000   0.000000 )  

     reciprocal axes: (cart. coord. in units 2 pi/alat)
               b(1) = ( -1.000000 -1.000000  1.000000 )  
               b(2) = (  1.000000  1.000000  1.000000 )  
               b(3) = ( -1.000000  1.000000 -1.000000 )  


     PseudoPot. # 1 for Si read from file:
     ./pseudos/Si.nc.UPF
     MD5 check sum: 9e2d726316af3d4752eea8ab0afbb951
     Pseudo is Norm-conserving + core correction, Zval =  4.0
     Generated using ONCVPSP code by D. R. Hamann
     Using radial grid of 1510 points,  6 beta functions with: 
                l(1) =   0
                l(2) =   0
                l(3) =   1
                l(4) =   1
                l(5) =   2
                l(6) =   2

     atomic species   valence    mass     pseudopotential
        Si             4.00    28.08550     Si( 1.00)

     48 Sym. Ops., with inversion, found



   Cartesian axes

     site n.     atom                  positions (alat units)
         1           Si  tau(   1) = (   0.0000000   0.0000000   0.0000000  )
         2           Si  tau(   2) = (  -0.2500000   0.2500000   0.2500000  )

     number of k points=   182

     Number of k-points >= 100: set verbosity='high' to print them.

     Dense  grid:    20875 G-vectors     FFT dimensions: (  40,  40,  40)

     Estimated max dynamical RAM per process >       1.81 MB

     Estimated total dynamical RAM >      50.55 MB

     The potential is recalculated from file :
     /fastscratch/tsievers/QE_TMP_DIR/_ph0/silicon_ph_bench_nd_9_n_procs_28_1.save/charge-density

     Starting wfcs are    8 atomic wfcs

     Band Structure Calculation
     Davidson diagonalization with overlap

     ethr =  1.25E-10,  avg # of iterations = 12.9

     total cpu time spent up to now is       33.0 secs

     End of band structure calculation

     Number of k-points >= 100: set verbosity='high' to print the bands.

     highest occupied level (ev):     6.1106

     Writing config to output data dir /fastscratch/tsievers/QE_TMP_DIR/_ph0/silicon_ph_bench_nd_9_n_procs_28_1.save/

     default                                                                    

     bravais-lattice index     =            2
     lattice parameter (alat)  =      10.1899  a.u.
     unit-cell volume          =     264.5151 (a.u.)^3
     number of atoms/cell      =            2
     number of atomic types    =            1
     kinetic-energy cut-off    =      70.0000  Ry
     charge density cut-off    =     280.0000  Ry
     convergence threshold     =      1.0E-15
     beta                      =       0.7000
     number of iterations used =            4
     Exchange-correlation= PW
                           (   1   4   0   0   0   0   0)


     celldm(1)=   10.18990  celldm(2)=    0.00000  celldm(3)=    0.00000
     celldm(4)=    0.00000  celldm(5)=    0.00000  celldm(6)=    0.00000

     crystal axes: (cart. coord. in units of alat)
               a(1) = ( -0.5000  0.0000  0.5000 )  
               a(2) = (  0.0000  0.5000  0.5000 )  
               a(3) = ( -0.5000  0.5000  0.0000 )  

     reciprocal axes: (cart. coord. in units 2 pi/alat)
               b(1) = ( -1.0000 -1.0000  1.0000 )  
               b(2) = (  1.0000  1.0000  1.0000 )  
               b(3) = ( -1.0000  1.0000 -1.0000 )  


     Atoms inside the unit cell: 

     Cartesian axes

     site n.  atom      mass           positions (alat units)
        1     Si  28.0855   tau(    1) = (    0.00000    0.00000    0.00000  )
        2     Si  28.0855   tau(    2) = (   -0.25000    0.25000    0.25000  )

     Computing dynamical matrix for 
                    q = (   0.5000000  -0.5000000   0.5000000 )
 
     13 Sym.Ops. (with q -> -q+G )


     G cutoff =  736.4420  (    747 G-vectors)     FFT grid: ( 40, 40, 40)
     number of k points=   182

     PseudoPot. # 1 for Si read from file:
     ./pseudos/Si.nc.UPF
     MD5 check sum: 9e2d726316af3d4752eea8ab0afbb951
     Pseudo is Norm-conserving + core correction, Zval =  4.0
     Generated using ONCVPSP code by D. R. Hamann
     Using radial grid of 1510 points,  6 beta functions with: 
                l(1) =   0
                l(2) =   0
                l(3) =   1
                l(4) =   1
                l(5) =   2
                l(6) =   2


     Atomic displacements:
     There are    4 irreducible representations

     Representation     1      1 modes -  To be done

     Representation     2      1 modes -  To be done

     Representation     3      2 modes -  To be done

     Representation     4      2 modes -  To be done



     Alpha used in Ewald sum =   2.8000
     PHONON       :   5m 6.17s CPU   5m32.23s WALL



     Representation #   1 mode #   1

     Self-consistent Calculation

      iter #   1 total cpu time :   333.2 secs   av.it.:   5.8
      thresh= 1.000E-02 alpha_mix =  0.700 |ddv_scf|^2 =  1.604E-06

      iter #   2 total cpu time :   334.8 secs   av.it.:  10.2
      thresh= 1.266E-04 alpha_mix =  0.700 |ddv_scf|^2 =  1.480E-06

      iter #   3 total cpu time :   336.2 secs   av.it.:   9.6
      thresh= 1.216E-04 alpha_mix =  0.700 |ddv_scf|^2 =  1.978E-10

      iter #   4 total cpu time :   337.7 secs   av.it.:  10.3
      thresh= 1.406E-06 alpha_mix =  0.700 |ddv_scf|^2 =  3.405E-12

      iter #   5 total cpu time :   339.3 secs   av.it.:  10.2
      thresh= 1.845E-07 alpha_mix =  0.700 |ddv_scf|^2 =  4.879E-14

      iter #   6 total cpu time :   340.8 secs   av.it.:  10.1
      thresh= 2.209E-08 alpha_mix =  0.700 |ddv_scf|^2 =  6.390E-16

     End of self-consistent calculation

     Convergence has been achieved 


     Representation #   2 mode #   2

     Self-consistent Calculation

      iter #   1 total cpu time :   342.0 secs   av.it.:   6.7
      thresh= 1.000E-02 alpha_mix =  0.700 |ddv_scf|^2 =  2.450E-05

      iter #   2 total cpu time :   343.5 secs   av.it.:  10.3
      thresh= 4.950E-04 alpha_mix =  0.700 |ddv_scf|^2 =  8.005E-05

      iter #   3 total cpu time :   344.9 secs   av.it.:   9.3
      thresh= 8.947E-04 alpha_mix =  0.700 |ddv_scf|^2 =  4.731E-09

      iter #   4 total cpu time :   346.4 secs   av.it.:  10.1
      thresh= 6.878E-06 alpha_mix =  0.700 |ddv_scf|^2 =  9.935E-11

      iter #   5 total cpu time :   348.0 secs   av.it.:  10.6
      thresh= 9.967E-07 alpha_mix =  0.700 |ddv_scf|^2 =  4.962E-12

      iter #   6 total cpu time :   349.5 secs   av.it.:  10.3
      thresh= 2.228E-07 alpha_mix =  0.700 |ddv_scf|^2 =  1.400E-13

      iter #   7 total cpu time :   350.9 secs   av.it.:   9.7
      thresh= 3.742E-08 alpha_mix =  0.700 |ddv_scf|^2 =  2.486E-17

     End of self-consistent calculation

     Convergence has been achieved 


     Representation #   3 modes #   3   4

     Self-consistent Calculation

      iter #   1 total cpu time :   353.1 secs   av.it.:   6.1
      thresh= 1.000E-02 alpha_mix =  0.700 |ddv_scf|^2 =  5.662E-08

      iter #   2 total cpu time :   356.5 secs   av.it.:  11.6
      thresh= 2.379E-05 alpha_mix =  0.700 |ddv_scf|^2 =  4.800E-09

      iter #   3 total cpu time :   359.8 secs   av.it.:  11.4
      thresh= 6.928E-06 alpha_mix =  0.700 |ddv_scf|^2 =  3.214E-11

      iter #   4 total cpu time :   363.0 secs   av.it.:  11.4
      thresh= 5.669E-07 alpha_mix =  0.700 |ddv_scf|^2 =  3.596E-14

      iter #   5 total cpu time :   367.1 secs   av.it.:  11.8
      thresh= 1.896E-08 alpha_mix =  0.700 |ddv_scf|^2 =  4.717E-16

     End of self-consistent calculation

     Convergence has been achieved 


     Representation #   4 modes #   5   6

     Self-consistent Calculation

      iter #   1 total cpu time :   369.2 secs   av.it.:   5.5
      thresh= 1.000E-02 alpha_mix =  0.700 |ddv_scf|^2 =  6.426E-09

      iter #   2 total cpu time :   372.5 secs   av.it.:  11.5
      thresh= 8.016E-06 alpha_mix =  0.700 |ddv_scf|^2 =  1.685E-10

      iter #   3 total cpu time :   375.8 secs   av.it.:  11.5
      thresh= 1.298E-06 alpha_mix =  0.700 |ddv_scf|^2 =  1.036E-11

      iter #   4 total cpu time :   379.1 secs   av.it.:  11.5
      thresh= 3.218E-07 alpha_mix =  0.700 |ddv_scf|^2 =  4.431E-14

      iter #   5 total cpu time :   382.3 secs   av.it.:  11.5
      thresh= 2.105E-08 alpha_mix =  0.700 |ddv_scf|^2 =  7.078E-16

     End of self-consistent calculation

     Convergence has been achieved 
 
     Number of q in the star =    4
     List of q in the star:
          1   0.500000000  -0.500000000   0.500000000
          2   0.500000000   0.500000000   0.500000000
          3  -0.500000000   0.500000000   0.500000000
          4   0.500000000   0.500000000  -0.500000000

     Diagonalizing the dynamical matrix

     q = (    0.500000000  -0.500000000   0.500000000 ) 

 **************************************************************************
     freq (    1) =       3.157188 [THz] =     105.312448 [cm-1]
     freq (    2) =       3.157188 [THz] =     105.312448 [cm-1]
     freq (    3) =      11.169088 [THz] =     372.560664 [cm-1]
     freq (    4) =      12.390635 [THz] =     413.307104 [cm-1]
     freq (    5) =      14.704260 [THz] =     490.481319 [cm-1]
     freq (    6) =      14.704260 [THz] =     490.481319 [cm-1]
 **************************************************************************

     Calculation of q =    0.0000000   0.3333333   0.0000000
 
     Parallelization info
     --------------------
     sticks:   dense  smooth     PW     G-vecs:    dense   smooth      PW
     Min          35      35     11                  744      744     131
     Max          36      36     12                  747      747     134
     Sum        1003    1003    313                20875    20875    3719
 
     Using Slab Decomposition
 

     Title: 
     default                                                                    


     bravais-lattice index     =            2
     lattice parameter (alat)  =      10.1899  a.u.
     unit-cell volume          =     264.5151 (a.u.)^3
     number of atoms/cell      =            2
     number of atomic types    =            1
     number of electrons       =         8.00
     number of Kohn-Sham states=            4
     kinetic-energy cutoff     =      70.0000  Ry
     charge density cutoff     =     280.0000  Ry
     Exchange-correlation= PW
                           (   1   4   0   0   0   0   0)

     celldm(1)=  10.189905  celldm(2)=   0.000000  celldm(3)=   0.000000
     celldm(4)=   0.000000  celldm(5)=   0.000000  celldm(6)=   0.000000

     crystal axes: (cart. coord. in units of alat)
               a(1) = (  -0.500000   0.000000   0.500000 )  
               a(2) = (   0.000000   0.500000   0.500000 )  
               a(3) = (  -0.500000   0.500000   0.000000 )  

     reciprocal axes: (cart. coord. in units 2 pi/alat)
               b(1) = ( -1.000000 -1.000000  1.000000 )  
               b(2) = (  1.000000  1.000000  1.000000 )  
               b(3) = ( -1.000000  1.000000 -1.000000 )  


     PseudoPot. # 1 for Si read from file:
     ./pseudos/Si.nc.UPF
     MD5 check sum: 9e2d726316af3d4752eea8ab0afbb951
     Pseudo is Norm-conserving + core correction, Zval =  4.0
     Generated using ONCVPSP code by D. R. Hamann
     Using radial grid of 1510 points,  6 beta functions with: 
                l(1) =   0
                l(2) =   0
                l(3) =   1
                l(4) =   1
                l(5) =   2
                l(6) =   2

     atomic species   valence    mass     pseudopotential
        Si             4.00    28.08550     Si( 1.00)

     48 Sym. Ops., with inversion, found



   Cartesian axes

     site n.     atom                  positions (alat units)
         1           Si  tau(   1) = (   0.0000000   0.0000000   0.0000000  )
         2           Si  tau(   2) = (  -0.2500000   0.2500000   0.2500000  )

     number of k points=   252

     Number of k-points >= 100: set verbosity='high' to print them.

     Dense  grid:    20875 G-vectors     FFT dimensions: (  40,  40,  40)

     Estimated max dynamical RAM per process >       1.78 MB

     Estimated total dynamical RAM >      49.80 MB

     The potential is recalculated from file :
     /fastscratch/tsievers/QE_TMP_DIR/_ph0/silicon_ph_bench_nd_9_n_procs_28_1.save/charge-density

     Starting wfcs are    8 atomic wfcs

     Band Structure Calculation
     Davidson diagonalization with overlap

     ethr =  1.25E-10,  avg # of iterations = 12.8

     total cpu time spent up to now is       42.8 secs

     End of band structure calculation

     Number of k-points >= 100: set verbosity='high' to print the bands.

     highest occupied level (ev):     6.1106

     Writing config to output data dir /fastscratch/tsievers/QE_TMP_DIR/_ph0/silicon_ph_bench_nd_9_n_procs_28_1.save/

     default                                                                    

     bravais-lattice index     =            2
     lattice parameter (alat)  =      10.1899  a.u.
     unit-cell volume          =     264.5151 (a.u.)^3
     number of atoms/cell      =            2
     number of atomic types    =            1
     kinetic-energy cut-off    =      70.0000  Ry
     charge density cut-off    =     280.0000  Ry
     convergence threshold     =      1.0E-15
     beta                      =       0.7000
     number of iterations used =            4
     Exchange-correlation= PW
                           (   1   4   0   0   0   0   0)


     celldm(1)=   10.18990  celldm(2)=    0.00000  celldm(3)=    0.00000
     celldm(4)=    0.00000  celldm(5)=    0.00000  celldm(6)=    0.00000

     crystal axes: (cart. coord. in units of alat)
               a(1) = ( -0.5000  0.0000  0.5000 )  
               a(2) = (  0.0000  0.5000  0.5000 )  
               a(3) = ( -0.5000  0.5000  0.0000 )  

     reciprocal axes: (cart. coord. in units 2 pi/alat)
               b(1) = ( -1.0000 -1.0000  1.0000 )  
               b(2) = (  1.0000  1.0000  1.0000 )  
               b(3) = ( -1.0000  1.0000 -1.0000 )  


     Atoms inside the unit cell: 

     Cartesian axes

     site n.  atom      mass           positions (alat units)
        1     Si  28.0855   tau(    1) = (    0.00000    0.00000    0.00000  )
        2     Si  28.0855   tau(    2) = (   -0.25000    0.25000    0.25000  )

     Computing dynamical matrix for 
                    q = (   0.0000000   0.3333333   0.0000000 )
 
      8 Sym.Ops. (no q -> -q+G )


     G cutoff =  736.4420  (    747 G-vectors)     FFT grid: ( 40, 40, 40)
     number of k points=   252

     PseudoPot. # 1 for Si read from file:
     ./pseudos/Si.nc.UPF
     MD5 check sum: 9e2d726316af3d4752eea8ab0afbb951
     Pseudo is Norm-conserving + core correction, Zval =  4.0
     Generated using ONCVPSP code by D. R. Hamann
     Using radial grid of 1510 points,  6 beta functions with: 
                l(1) =   0
                l(2) =   0
                l(3) =   1
                l(4) =   1
                l(5) =   2
                l(6) =   2

     Mode symmetry, C_4v (4mm)  point group:


     Atomic displacements:
     There are    4 irreducible representations

     Representation     1      1 modes -  To be done

     Representation     2      1 modes -  To be done

     Representation     3      2 modes -  To be done

     Representation     4      2 modes -  To be done



     Alpha used in Ewald sum =   2.8000
     PHONON       :   6m 2.10s CPU   6m32.24s WALL



     Representation #   1 mode #   1

     Self-consistent Calculation

      iter #   1 total cpu time :   393.8 secs   av.it.:   6.8
      thresh= 1.000E-02 alpha_mix =  0.700 |ddv_scf|^2 =  1.063E-03

      iter #   2 total cpu time :   395.7 secs   av.it.:   9.4
      thresh= 3.261E-03 alpha_mix =  0.700 |ddv_scf|^2 =  3.243E-02

      iter #   3 total cpu time :   397.4 secs   av.it.:   8.1
      thresh= 1.000E-02 alpha_mix =  0.700 |ddv_scf|^2 =  2.983E-08

      iter #   4 total cpu time :   399.3 secs   av.it.:   9.2
      thresh= 1.727E-05 alpha_mix =  0.700 |ddv_scf|^2 =  1.423E-09

      iter #   5 total cpu time :   401.1 secs   av.it.:   8.9
      thresh= 3.772E-06 alpha_mix =  0.700 |ddv_scf|^2 =  4.627E-10

      iter #   6 total cpu time :   402.9 secs   av.it.:   8.5
      thresh= 2.151E-06 alpha_mix =  0.700 |ddv_scf|^2 =  6.244E-13

      iter #   7 total cpu time :   404.7 secs   av.it.:   8.7
      thresh= 7.902E-08 alpha_mix =  0.700 |ddv_scf|^2 =  1.420E-14

      iter #   8 total cpu time :   406.5 secs   av.it.:   8.7
      thresh= 1.192E-08 alpha_mix =  0.700 |ddv_scf|^2 =  1.773E-16

     End of self-consistent calculation

     Convergence has been achieved 


     Representation #   2 mode #   2

     Self-consistent Calculation

      iter #   1 total cpu time :   407.9 secs   av.it.:   5.9
      thresh= 1.000E-02 alpha_mix =  0.700 |ddv_scf|^2 =  1.623E-07

      iter #   2 total cpu time :   410.2 secs   av.it.:  10.7
      thresh= 4.029E-05 alpha_mix =  0.700 |ddv_scf|^2 =  2.625E-08

      iter #   3 total cpu time :   412.3 secs   av.it.:  10.5
      thresh= 1.620E-05 alpha_mix =  0.700 |ddv_scf|^2 =  3.320E-10

      iter #   4 total cpu time :   414.4 secs   av.it.:  10.6
      thresh= 1.822E-06 alpha_mix =  0.700 |ddv_scf|^2 =  1.379E-11

      iter #   5 total cpu time :   416.5 secs   av.it.:  10.6
      thresh= 3.713E-07 alpha_mix =  0.700 |ddv_scf|^2 =  3.142E-14

      iter #   6 total cpu time :   418.6 secs   av.it.:  10.7
      thresh= 1.772E-08 alpha_mix =  0.700 |ddv_scf|^2 =  6.277E-16

     End of self-consistent calculation

     Convergence has been achieved 


     Representation #   3 modes #   3   4

     Self-consistent Calculation

      iter #   1 total cpu time :   421.5 secs   av.it.:   6.1
      thresh= 1.000E-02 alpha_mix =  0.700 |ddv_scf|^2 =  2.938E-08

      iter #   2 total cpu time :   427.3 secs   av.it.:  11.7
      thresh= 1.714E-05 alpha_mix =  0.700 |ddv_scf|^2 =  2.678E-09

      iter #   3 total cpu time :   431.8 secs   av.it.:  11.4
      thresh= 5.175E-06 alpha_mix =  0.700 |ddv_scf|^2 =  3.122E-11

      iter #   4 total cpu time :   436.3 secs   av.it.:  11.6
      thresh= 5.587E-07 alpha_mix =  0.700 |ddv_scf|^2 =  3.511E-13

      iter #   5 total cpu time :   440.7 secs   av.it.:  11.5
      thresh= 5.925E-08 alpha_mix =  0.700 |ddv_scf|^2 =  5.827E-15

      iter #   6 total cpu time :   445.2 secs   av.it.:  12.0
      thresh= 7.634E-09 alpha_mix =  0.700 |ddv_scf|^2 =  2.373E-17

     End of self-consistent calculation

     Convergence has been achieved 


     Representation #   4 modes #   5   6

     Self-consistent Calculation

      iter #   1 total cpu time :   448.1 secs   av.it.:   6.0
      thresh= 1.000E-02 alpha_mix =  0.700 |ddv_scf|^2 =  3.874E-08

      iter #   2 total cpu time :   452.6 secs   av.it.:  11.5
      thresh= 1.968E-05 alpha_mix =  0.700 |ddv_scf|^2 =  3.652E-09

      iter #   3 total cpu time :   457.8 secs   av.it.:  11.3
      thresh= 6.043E-06 alpha_mix =  0.700 |ddv_scf|^2 =  3.305E-11

      iter #   4 total cpu time :   462.2 secs   av.it.:  11.5
      thresh= 5.749E-07 alpha_mix =  0.700 |ddv_scf|^2 =  2.246E-13

      iter #   5 total cpu time :   466.7 secs   av.it.:  11.5
      thresh= 4.740E-08 alpha_mix =  0.700 |ddv_scf|^2 =  5.334E-15

      iter #   6 total cpu time :   471.2 secs   av.it.:  11.9
      thresh= 7.303E-09 alpha_mix =  0.700 |ddv_scf|^2 =  2.260E-17

     End of self-consistent calculation

     Convergence has been achieved 
 
     Number of q in the star =    6
     List of q in the star:
          1   0.000000000   0.333333333   0.000000000
          2   0.333333333   0.000000000   0.000000000
          3   0.000000000   0.000000000   0.333333333
          4   0.000000000  -0.333333333   0.000000000
          5  -0.333333333   0.000000000   0.000000000
          6   0.000000000   0.000000000  -0.333333333

     Diagonalizing the dynamical matrix

     q = (    0.000000000   0.333333333   0.000000000 ) 

 **************************************************************************
     freq (    1) =       2.948449 [THz] =      98.349686 [cm-1]
     freq (    2) =       2.948449 [THz] =      98.349686 [cm-1]
     freq (    3) =       4.953329 [THz] =     165.225266 [cm-1]
     freq (    4) =      14.670275 [THz] =     489.347714 [cm-1]
     freq (    5) =      14.670275 [THz] =     489.347714 [cm-1]
     freq (    6) =      15.142888 [THz] =     505.112361 [cm-1]
 **************************************************************************

     Mode symmetry, C_4v (4mm)  point group:

     freq (   1-   2) =         98.3  [cm-1]   --> E    G_5 D_5       
     freq (   3-   3) =        165.2  [cm-1]   --> A_1  G_1 D_1       
     freq (   4-   5) =        489.3  [cm-1]   --> E    G_5 D_5       
     freq (   6-   6) =        505.1  [cm-1]   --> B_2  G_4 D_2'      

     Calculation of q =   -0.1666667   0.5000000  -0.1666667
 
     Parallelization info
     --------------------
     sticks:   dense  smooth     PW     G-vecs:    dense   smooth      PW
     Min          35      35     11                  744      744     136
     Max          36      36     12                  747      747     141
     Sum        1003    1003    313                20875    20875    3839
 
     Using Slab Decomposition
 

     Title: 
     default                                                                    


     bravais-lattice index     =            2
     lattice parameter (alat)  =      10.1899  a.u.
     unit-cell volume          =     264.5151 (a.u.)^3
     number of atoms/cell      =            2
     number of atomic types    =            1
     number of electrons       =         8.00
     number of Kohn-Sham states=            4
     kinetic-energy cutoff     =      70.0000  Ry
     charge density cutoff     =     280.0000  Ry
     Exchange-correlation= PW
                           (   1   4   0   0   0   0   0)

     celldm(1)=  10.189905  celldm(2)=   0.000000  celldm(3)=   0.000000
     celldm(4)=   0.000000  celldm(5)=   0.000000  celldm(6)=   0.000000

     crystal axes: (cart. coord. in units of alat)
               a(1) = (  -0.500000   0.000000   0.500000 )  
               a(2) = (   0.000000   0.500000   0.500000 )  
               a(3) = (  -0.500000   0.500000   0.000000 )  

     reciprocal axes: (cart. coord. in units 2 pi/alat)
               b(1) = ( -1.000000 -1.000000  1.000000 )  
               b(2) = (  1.000000  1.000000  1.000000 )  
               b(3) = ( -1.000000  1.000000 -1.000000 )  


     PseudoPot. # 1 for Si read from file:
     ./pseudos/Si.nc.UPF
     MD5 check sum: 9e2d726316af3d4752eea8ab0afbb951
     Pseudo is Norm-conserving + core correction, Zval =  4.0
     Generated using ONCVPSP code by D. R. Hamann
     Using radial grid of 1510 points,  6 beta functions with: 
                l(1) =   0
                l(2) =   0
                l(3) =   1
                l(4) =   1
                l(5) =   2
                l(6) =   2

     atomic species   valence    mass     pseudopotential
        Si             4.00    28.08550     Si( 1.00)

     48 Sym. Ops., with inversion, found



   Cartesian axes

     site n.     atom                  positions (alat units)
         1           Si  tau(   1) = (   0.0000000   0.0000000   0.0000000  )
         2           Si  tau(   2) = (  -0.2500000   0.2500000   0.2500000  )

     number of k points=   936

     Number of k-points >= 100: set verbosity='high' to print them.

     Dense  grid:    20875 G-vectors     FFT dimensions: (  40,  40,  40)

     Estimated max dynamical RAM per process >       1.79 MB

     Estimated total dynamical RAM >      50.12 MB

     The potential is recalculated from file :
     /fastscratch/tsievers/QE_TMP_DIR/_ph0/silicon_ph_bench_nd_9_n_procs_28_1.save/charge-density

     Starting wfcs are    8 atomic wfcs

     Band Structure Calculation
     Davidson diagonalization with overlap

     ethr =  1.25E-10,  avg # of iterations = 12.8

     total cpu time spent up to now is       76.7 secs

     End of band structure calculation

     Number of k-points >= 100: set verbosity='high' to print the bands.

     highest occupied level (ev):     6.1106

     Writing config to output data dir /fastscratch/tsievers/QE_TMP_DIR/_ph0/silicon_ph_bench_nd_9_n_procs_28_1.save/

     default                                                                    

     bravais-lattice index     =            2
     lattice parameter (alat)  =      10.1899  a.u.
     unit-cell volume          =     264.5151 (a.u.)^3
     number of atoms/cell      =            2
     number of atomic types    =            1
     kinetic-energy cut-off    =      70.0000  Ry
     charge density cut-off    =     280.0000  Ry
     convergence threshold     =      1.0E-15
     beta                      =       0.7000
     number of iterations used =            4
     Exchange-correlation= PW
                           (   1   4   0   0   0   0   0)


     celldm(1)=   10.18990  celldm(2)=    0.00000  celldm(3)=    0.00000
     celldm(4)=    0.00000  celldm(5)=    0.00000  celldm(6)=    0.00000

     crystal axes: (cart. coord. in units of alat)
               a(1) = ( -0.5000  0.0000  0.5000 )  
               a(2) = (  0.0000  0.5000  0.5000 )  
               a(3) = ( -0.5000  0.5000  0.0000 )  

     reciprocal axes: (cart. coord. in units 2 pi/alat)
               b(1) = ( -1.0000 -1.0000  1.0000 )  
               b(2) = (  1.0000  1.0000  1.0000 )  
               b(3) = ( -1.0000  1.0000 -1.0000 )  


     Atoms inside the unit cell: 

     Cartesian axes

[...]
                l(4) =   1
                l(5) =   2
                l(6) =   2

     atomic species   valence    mass     pseudopotential
        Si             4.00    28.08550     Si( 1.00)

     48 Sym. Ops., with inversion, found



   Cartesian axes

     site n.     atom                  positions (alat units)
         1           Si  tau(   1) = (   0.0000000   0.0000000   0.0000000  )
         2           Si  tau(   2) = (  -0.2500000   0.2500000   0.2500000  )

     number of k points=   864

     Number of k-points >= 100: set verbosity='high' to print them.

     Dense  grid:    20875 G-vectors     FFT dimensions: (  40,  40,  40)

     Estimated max dynamical RAM per process >       1.81 MB

     Estimated total dynamical RAM >      50.72 MB

     The potential is recalculated from file :
     /fastscratch/tsievers/QE_TMP_DIR/_ph0/silicon_ph_bench_nd_9_n_procs_28_1.save/charge-density

     Starting wfcs are    8 atomic wfcs

     Band Structure Calculation
     Davidson diagonalization with overlap

     ethr =  1.25E-10,  avg # of iterations = 12.8

     total cpu time spent up to now is      290.6 secs

     End of band structure calculation

     Number of k-points >= 100: set verbosity='high' to print the bands.

     highest occupied level (ev):     6.1106

     Writing config to output data dir /fastscratch/tsievers/QE_TMP_DIR/_ph0/silicon_ph_bench_nd_9_n_procs_28_1.save/

     default                                                                    

     bravais-lattice index     =            2
     lattice parameter (alat)  =      10.1899  a.u.
     unit-cell volume          =     264.5151 (a.u.)^3
     number of atoms/cell      =            2
     number of atomic types    =            1
     kinetic-energy cut-off    =      70.0000  Ry
     charge density cut-off    =     280.0000  Ry
     convergence threshold     =      1.0E-15
     beta                      =       0.7000
     number of iterations used =            4
     Exchange-correlation= PW
                           (   1   4   0   0   0   0   0)


     celldm(1)=   10.18990  celldm(2)=    0.00000  celldm(3)=    0.00000
     celldm(4)=    0.00000  celldm(5)=    0.00000  celldm(6)=    0.00000

     crystal axes: (cart. coord. in units of alat)
               a(1) = ( -0.5000  0.0000  0.5000 )  
               a(2) = (  0.0000  0.5000  0.5000 )  
               a(3) = ( -0.5000  0.5000  0.0000 )  

     reciprocal axes: (cart. coord. in units 2 pi/alat)
               b(1) = ( -1.0000 -1.0000  1.0000 )  
               b(2) = (  1.0000  1.0000  1.0000 )  
               b(3) = ( -1.0000  1.0000 -1.0000 )  


     Atoms inside the unit cell: 

     Cartesian axes

     site n.  atom      mass           positions (alat units)
        1     Si  28.0855   tau(    1) = (    0.00000    0.00000    0.00000  )
        2     Si  28.0855   tau(    2) = (   -0.25000    0.25000    0.25000  )

     Computing dynamical matrix for 
                    q = (   0.5000000  -0.1666667   0.8333333 )
 
      2 Sym.Ops. (no q -> -q+G )


     G cutoff =  736.4420  (    747 G-vectors)     FFT grid: ( 40, 40, 40)
     number of k points=   864

     PseudoPot. # 1 for Si read from file:
     ./pseudos/Si.nc.UPF
     MD5 check sum: 9e2d726316af3d4752eea8ab0afbb951
     Pseudo is Norm-conserving + core correction, Zval =  4.0
     Generated using ONCVPSP code by D. R. Hamann
     Using radial grid of 1510 points,  6 beta functions with: 
                l(1) =   0
                l(2) =   0
                l(3) =   1
                l(4) =   1
                l(5) =   2
                l(6) =   2


     Atomic displacements:
     There are    6 irreducible representations

     Representation     1      1 modes -  To be done

     Representation     2      1 modes -  To be done

     Representation     3      1 modes -  To be done

     Representation     4      1 modes -  To be done

     Representation     5      1 modes -  To be done

     Representation     6      1 modes -  To be done



     Alpha used in Ewald sum =   2.8000
     PHONON       :  48m58.56s CPU  51m51.20s WALL



     Representation #   1 mode #   1

     Self-consistent Calculation

      iter #   1 total cpu time :  3115.9 secs   av.it.:   6.1
      thresh= 1.000E-02 alpha_mix =  0.700 |ddv_scf|^2 =  1.021E-06

      iter #   2 total cpu time :  3123.1 secs   av.it.:  10.9
      thresh= 1.010E-04 alpha_mix =  0.700 |ddv_scf|^2 =  1.653E-06

      iter #   3 total cpu time :  3129.9 secs   av.it.:  10.0
      thresh= 1.286E-04 alpha_mix =  0.700 |ddv_scf|^2 =  3.742E-09

      iter #   4 total cpu time :  3137.4 secs   av.it.:  10.7
      thresh= 6.117E-06 alpha_mix =  0.700 |ddv_scf|^2 =  1.172E-10

      iter #   5 total cpu time :  3144.7 secs   av.it.:  10.9
      thresh= 1.083E-06 alpha_mix =  0.700 |ddv_scf|^2 =  1.163E-12

      iter #   6 total cpu time :  3153.4 secs   av.it.:  10.9
      thresh= 1.078E-07 alpha_mix =  0.700 |ddv_scf|^2 =  1.987E-14

      iter #   7 total cpu time :  3160.8 secs   av.it.:  11.0
      thresh= 1.410E-08 alpha_mix =  0.700 |ddv_scf|^2 =  7.735E-16

     End of self-consistent calculation

     Convergence has been achieved 


     Representation #   2 mode #   2

     Self-consistent Calculation

      iter #   1 total cpu time :  3166.0 secs   av.it.:   6.5
      thresh= 1.000E-02 alpha_mix =  0.700 |ddv_scf|^2 =  3.933E-06

      iter #   2 total cpu time :  3175.6 secs   av.it.:  10.9
      thresh= 1.983E-04 alpha_mix =  0.700 |ddv_scf|^2 =  6.275E-06

      iter #   3 total cpu time :  3184.6 secs   av.it.:  10.1
      thresh= 2.505E-04 alpha_mix =  0.700 |ddv_scf|^2 =  1.210E-08

      iter #   4 total cpu time :  3191.6 secs   av.it.:  10.5
      thresh= 1.100E-05 alpha_mix =  0.700 |ddv_scf|^2 =  2.166E-10

      iter #   5 total cpu time :  3198.7 secs   av.it.:  10.8
      thresh= 1.472E-06 alpha_mix =  0.700 |ddv_scf|^2 =  1.196E-12

      iter #   6 total cpu time :  3206.1 secs   av.it.:  10.9
      thresh= 1.094E-07 alpha_mix =  0.700 |ddv_scf|^2 =  3.418E-14

      iter #   7 total cpu time :  3214.1 secs   av.it.:  10.8
      thresh= 1.849E-08 alpha_mix =  0.700 |ddv_scf|^2 =  3.807E-15

      iter #   8 total cpu time :  3221.2 secs   av.it.:  10.8
      thresh= 6.170E-09 alpha_mix =  0.700 |ddv_scf|^2 =  7.562E-17

     End of self-consistent calculation

     Convergence has been achieved 


     Representation #   3 mode #   3

     Self-consistent Calculation

      iter #   1 total cpu time :  3226.6 secs   av.it.:   6.3
      thresh= 1.000E-02 alpha_mix =  0.700 |ddv_scf|^2 =  2.393E-06

      iter #   2 total cpu time :  3233.8 secs   av.it.:  11.0
      thresh= 1.547E-04 alpha_mix =  0.700 |ddv_scf|^2 =  3.934E-06

      iter #   3 total cpu time :  3240.9 secs   av.it.:  10.1
      thresh= 1.983E-04 alpha_mix =  0.700 |ddv_scf|^2 =  5.044E-09

      iter #   4 total cpu time :  3248.2 secs   av.it.:  10.7
      thresh= 7.102E-06 alpha_mix =  0.700 |ddv_scf|^2 =  2.513E-10

      iter #   5 total cpu time :  3255.7 secs   av.it.:  10.8
      thresh= 1.585E-06 alpha_mix =  0.700 |ddv_scf|^2 =  3.097E-12

      iter #   6 total cpu time :  3262.9 secs   av.it.:  11.0
      thresh= 1.760E-07 alpha_mix =  0.700 |ddv_scf|^2 =  4.798E-14

      iter #   7 total cpu time :  3270.2 secs   av.it.:  10.8
      thresh= 2.190E-08 alpha_mix =  0.700 |ddv_scf|^2 =  3.629E-15

      iter #   8 total cpu time :  3277.8 secs   av.it.:  10.8
      thresh= 6.024E-09 alpha_mix =  0.700 |ddv_scf|^2 =  2.221E-17

     End of self-consistent calculation

     Convergence has been achieved 


     Representation #   4 mode #   4

     Self-consistent Calculation

      iter #   1 total cpu time :  3282.7 secs   av.it.:   6.3
      thresh= 1.000E-02 alpha_mix =  0.700 |ddv_scf|^2 =  2.452E-06

      iter #   2 total cpu time :  3289.9 secs   av.it.:  11.0
      thresh= 1.566E-04 alpha_mix =  0.700 |ddv_scf|^2 =  4.082E-06

      iter #   3 total cpu time :  3296.6 secs   av.it.:  10.0
      thresh= 2.020E-04 alpha_mix =  0.700 |ddv_scf|^2 =  6.110E-09

      iter #   4 total cpu time :  3304.4 secs   av.it.:  10.7
      thresh= 7.817E-06 alpha_mix =  0.700 |ddv_scf|^2 =  1.183E-10

      iter #   5 total cpu time :  3311.8 secs   av.it.:  10.9
      thresh= 1.087E-06 alpha_mix =  0.700 |ddv_scf|^2 =  1.572E-12

      iter #   6 total cpu time :  3318.9 secs   av.it.:  10.8
      thresh= 1.254E-07 alpha_mix =  0.700 |ddv_scf|^2 =  1.909E-14

      iter #   7 total cpu time :  3326.1 secs   av.it.:  11.0
      thresh= 1.382E-08 alpha_mix =  0.700 |ddv_scf|^2 =  1.037E-15

      iter #   8 total cpu time :  3334.4 secs   av.it.:  10.8
      thresh= 3.221E-09 alpha_mix =  0.700 |ddv_scf|^2 =  2.811E-17

     End of self-consistent calculation

     Convergence has been achieved 


     Representation #   5 mode #   5

     Self-consistent Calculation

      iter #   1 total cpu time :  3339.9 secs   av.it.:   6.6
      thresh= 1.000E-02 alpha_mix =  0.700 |ddv_scf|^2 =  2.746E-06

      iter #   2 total cpu time :  3347.1 secs   av.it.:  11.1
      thresh= 1.657E-04 alpha_mix =  0.700 |ddv_scf|^2 =  3.482E-06

      iter #   3 total cpu time :  3354.0 secs   av.it.:  10.3
      thresh= 1.866E-04 alpha_mix =  0.700 |ddv_scf|^2 =  3.985E-08

      iter #   4 total cpu time :  3361.0 secs   av.it.:  10.5
      thresh= 1.996E-05 alpha_mix =  0.700 |ddv_scf|^2 =  2.005E-10

      iter #   5 total cpu time :  3369.2 secs   av.it.:  10.8
      thresh= 1.416E-06 alpha_mix =  0.700 |ddv_scf|^2 =  5.085E-12

      iter #   6 total cpu time :  3376.4 secs   av.it.:  10.9
      thresh= 2.255E-07 alpha_mix =  0.700 |ddv_scf|^2 =  2.984E-14

      iter #   7 total cpu time :  3383.5 secs   av.it.:  10.8
      thresh= 1.727E-08 alpha_mix =  0.700 |ddv_scf|^2 =  3.307E-15

      iter #   8 total cpu time :  3390.8 secs   av.it.:  10.8
      thresh= 5.750E-09 alpha_mix =  0.700 |ddv_scf|^2 =  1.011E-16

     End of self-consistent calculation

     Convergence has been achieved 


     Representation #   6 mode #   6

     Self-consistent Calculation

      iter #   1 total cpu time :  3396.0 secs   av.it.:   6.3
      thresh= 1.000E-02 alpha_mix =  0.700 |ddv_scf|^2 =  1.290E-06

      iter #   2 total cpu time :  3404.0 secs   av.it.:  11.0
      thresh= 1.136E-04 alpha_mix =  0.700 |ddv_scf|^2 =  1.415E-06

      iter #   3 total cpu time :  3410.8 secs   av.it.:  10.2
      thresh= 1.190E-04 alpha_mix =  0.700 |ddv_scf|^2 =  3.465E-08

      iter #   4 total cpu time :  3418.1 secs   av.it.:  10.4
      thresh= 1.861E-05 alpha_mix =  0.700 |ddv_scf|^2 =  1.131E-10

      iter #   5 total cpu time :  3425.6 secs   av.it.:  10.8
      thresh= 1.063E-06 alpha_mix =  0.700 |ddv_scf|^2 =  2.130E-12

      iter #   6 total cpu time :  3433.0 secs   av.it.:  10.8
      thresh= 1.459E-07 alpha_mix =  0.700 |ddv_scf|^2 =  9.943E-15

      iter #   7 total cpu time :  3440.1 secs   av.it.:  10.8
      thresh= 9.972E-09 alpha_mix =  0.700 |ddv_scf|^2 =  5.674E-16

     End of self-consistent calculation

     Convergence has been achieved 
 
     Number of q in the star =   24
     List of q in the star:
          1   0.500000000  -0.166666667   0.833333333
          2   0.833333333   0.166666667   0.500000000
          3   0.500000000   0.166666667   0.833333333
          4  -0.833333333  -0.166666667   0.500000000
          5  -0.833333333  -0.166666667  -0.500000000
          6  -0.500000000  -0.166666667  -0.833333333
          7   0.833333333  -0.166666667   0.500000000
          8  -0.500000000  -0.166666667   0.833333333
          9  -0.833333333   0.166666667   0.500000000
         10   0.833333333   0.166666667  -0.500000000
         11   0.833333333  -0.166666667  -0.500000000
         12   0.500000000   0.166666667  -0.833333333
         13  -0.500000000   0.166666667   0.833333333
         14  -0.500000000   0.166666667  -0.833333333
         15  -0.833333333   0.166666667  -0.500000000
         16   0.833333333  -0.500000000   0.166666667
         17   0.833333333   0.500000000  -0.166666667
         18  -0.833333333  -0.500000000  -0.166666667
         19  -0.833333333   0.500000000   0.166666667
         20   0.166666667  -0.500000000   0.833333333
         21  -0.166666667   0.500000000   0.833333333
         22   0.166666667   0.500000000  -0.833333333
         23  -0.166666667  -0.500000000  -0.833333333
         24  -0.500000000   0.833333333   0.166666667

     Diagonalizing the dynamical matrix

     q = (    0.500000000  -0.166666667   0.833333333 ) 

 **************************************************************************
     freq (    1) =       5.052004 [THz] =     168.516710 [cm-1]
     freq (    2) =       6.066509 [THz] =     202.356949 [cm-1]
     freq (    3) =       9.812688 [THz] =     327.316045 [cm-1]
     freq (    4) =      11.453265 [THz] =     382.039804 [cm-1]
     freq (    5) =      14.042011 [THz] =     468.391070 [cm-1]
     freq (    6) =      14.270758 [THz] =     476.021252 [cm-1]
 **************************************************************************

     Calculation of q =   -0.3333333  -1.0000000   0.0000000
 
     Parallelization info
     --------------------
     sticks:   dense  smooth     PW     G-vecs:    dense   smooth      PW
     Min          35      35     12                  744      744     151
     Max          36      36     13                  747      747     155
     Sum        1003    1003    349                20875    20875    4279
 
     Using Slab Decomposition
 

     Title: 
     default                                                                    


     bravais-lattice index     =            2
     lattice parameter (alat)  =      10.1899  a.u.
     unit-cell volume          =     264.5151 (a.u.)^3
     number of atoms/cell      =            2
     number of atomic types    =            1
     number of electrons       =         8.00
     number of Kohn-Sham states=            4
     kinetic-energy cutoff     =      70.0000  Ry
     charge density cutoff     =     280.0000  Ry
     Exchange-correlation= PW
                           (   1   4   0   0   0   0   0)

     celldm(1)=  10.189905  celldm(2)=   0.000000  celldm(3)=   0.000000
     celldm(4)=   0.000000  celldm(5)=   0.000000  celldm(6)=   0.000000

     crystal axes: (cart. coord. in units of alat)
               a(1) = (  -0.500000   0.000000   0.500000 )  
               a(2) = (   0.000000   0.500000   0.500000 )  
               a(3) = (  -0.500000   0.500000   0.000000 )  

     reciprocal axes: (cart. coord. in units 2 pi/alat)
               b(1) = ( -1.000000 -1.000000  1.000000 )  
               b(2) = (  1.000000  1.000000  1.000000 )  
               b(3) = ( -1.000000  1.000000 -1.000000 )  


     PseudoPot. # 1 for Si read from file:
     ./pseudos/Si.nc.UPF
     MD5 check sum: 9e2d726316af3d4752eea8ab0afbb951
     Pseudo is Norm-conserving + core correction, Zval =  4.0
     Generated using ONCVPSP code by D. R. Hamann
     Using radial grid of 1510 points,  6 beta functions with: 
                l(1) =   0
                l(2) =   0
                l(3) =   1
                l(4) =   1
                l(5) =   2
                l(6) =   2

     atomic species   valence    mass     pseudopotential
        Si             4.00    28.08550     Si( 1.00)

     48 Sym. Ops., with inversion, found



   Cartesian axes

     site n.     atom                  positions (alat units)
         1           Si  tau(   1) = (   0.0000000   0.0000000   0.0000000  )
         2           Si  tau(   2) = (  -0.2500000   0.2500000   0.2500000  )

     number of k points=   432

     Number of k-points >= 100: set verbosity='high' to print them.

     Dense  grid:    20875 G-vectors     FFT dimensions: (  40,  40,  40)

     Estimated max dynamical RAM per process >       1.81 MB

     Estimated total dynamical RAM >      50.82 MB

     The potential is recalculated from file :
     /fastscratch/tsievers/QE_TMP_DIR/_ph0/silicon_ph_bench_nd_9_n_procs_28_1.save/charge-density

     Starting wfcs are    8 atomic wfcs

     Band Structure Calculation
     Davidson diagonalization with overlap
Abort(471420687) on node 0 (rank 0 in comm 0): Fatal error in PMPI_Comm_split: Other MPI error, error stack:
PMPI_Comm_split(495)................: MPI_Comm_split(comm=0xc400001c, color=0, key=0, new_comm=0x7fff81053c48) failed
PMPI_Comm_split(477)................: 
MPIR_Comm_split_impl(246)...........: 
MPIR_Get_contextid_sparse_group(602): Too many communicators (32746/32768 free on this process; ignore_id=0)
Abort(874073871) on node 2 (rank 2 in comm 0): Fatal error in PMPI_Comm_split: Other MPI error, error stack:
PMPI_Comm_split(495)................: MPI_Comm_split(comm=0xc4000015, color=0, key=1, new_comm=0x7ffd2b9d6248) failed
PMPI_Comm_split(477)................: 
MPIR_Comm_split_impl(246)...........: 
MPIR_Get_contextid_sparse_group(602): Too many communicators (32746/32768 free on this process; ignore_id=0)
Abort(1658639) on node 4 (rank 4 in comm 0): Fatal error in PMPI_Comm_split: Other MPI error, error stack:
PMPI_Comm_split(495)................: MPI_Comm_split(comm=0xc4000012, color=0, key=2, new_comm=0x7ffd59bd29c8) failed
PMPI_Comm_split(477)................: 
MPIR_Comm_split_impl(246)...........: 
MPIR_Get_contextid_sparse_group(602): Too many communicators (0/32768 free on this process; ignore_id=0)
Abort(672747279) on node 6 (rank 6 in comm 0): Fatal error in PMPI_Comm_split: Other MPI error, error stack:
PMPI_Comm_split(495)................: MPI_Comm_split(comm=0xc4000012, color=1, key=0, new_comm=0x7ffe091f8048) failed
PMPI_Comm_split(477)................: 
MPIR_Comm_split_impl(246)...........: 
MPIR_Get_contextid_sparse_group(602): Too many communicators (32746/32768 free on this process; ignore_id=0)
Abort(337202959) on node 8 (rank 8 in comm 0): Fatal error in PMPI_Comm_split: Other MPI error, error stack:
PMPI_Comm_split(495)................: MPI_Comm_split(comm=0xc4000012, color=1, key=1, new_comm=0x7ffeafbfab48) failed
PMPI_Comm_split(477)................: 
MPIR_Comm_split_impl(246)...........: 
MPIR_Get_contextid_sparse_group(602): Too many communicators (32746/32768 free on this process; ignore_id=0)
Abort(874073871) on node 10 (rank 10 in comm 0): Fatal error in PMPI_Comm_split: Other MPI error, error stack:
PMPI_Comm_split(495)................: MPI_Comm_split(comm=0xc4000015, color=1, key=2, new_comm=0x7ffd87e398c8) failed
PMPI_Comm_split(477)................: 
MPIR_Comm_split_impl(246)...........: 
MPIR_Get_contextid_sparse_group(602): Too many communicators (32746/32768 free on this process; ignore_id=0)
Abort(404311823) on node 12 (rank 12 in comm 0): Fatal error in PMPI_Comm_split: Other MPI error, error stack:
PMPI_Comm_split(495)................: MPI_Comm_split(comm=0xc4000015, color=2, key=0, new_comm=0x7ffff4475548) failed
PMPI_Comm_split(477)................: 
MPIR_Comm_split_impl(246)...........: 
MPIR_Get_contextid_sparse_group(602): Too many communicators (32746/32768 free on this process; ignore_id=0)
Abort(270094095) on node 14 (rank 14 in comm 0): Fatal error in PMPI_Comm_split: Other MPI error, error stack:
PMPI_Comm_split(495)................: MPI_Comm_split(comm=0xc4000012, color=2, key=1, new_comm=0x7ffe34709948) failed
PMPI_Comm_split(477)................: 
MPIR_Comm_split_impl(246)...........: 
MPIR_Get_contextid_sparse_group(602): Too many communicators (32746/32768 free on this process; ignore_id=0)
Abort(337202959) on node 16 (rank 16 in comm 0): Fatal error in PMPI_Comm_split: Other MPI error, error stack:
PMPI_Comm_split(495)................: MPI_Comm_split(comm=0xc4000012, color=2, key=2, new_comm=0x7ffcb560bdc8) failed
PMPI_Comm_split(477)................: 
MPIR_Comm_split_impl(246)...........: 
MPIR_Get_contextid_sparse_group(602): Too many communicators (32746/32768 free on this process; ignore_id=0)
Command exited with non-zero status 15
real 3451.65
user 65473.89
sys 1932.85
