Module for gcc 10.2:
(GNU C/C++/FORTRAN compilers v10.2.0) - loaded.
Module for OpenMPI 4.1.0-gcc10.2-infiniband loaded.

     Program PWSCF v.7.0 starts on 13Feb2022 at 12:16: 3 

     This program is part of the open-source Quantum ESPRESSO suite
     for quantum simulation of materials; please cite
         "P. Giannozzi et al., J. Phys.:Condens. Matter 21 395502 (2009);
         "P. Giannozzi et al., J. Phys.:Condens. Matter 29 465901 (2017);
         "P. Giannozzi et al., J. Chem. Phys. 152 154105 (2020);
          URL http://www.quantum-espresso.org", 
     in publications or presentations arising from this work. More details at
     http://www.quantum-espresso.org/quote

     Parallel version (MPI), running on    14 processors

     MPI processes distributed on     1 nodes
     R & G space division:  proc/nbgrp/npool/nimage =      14
     42925 MiB available memory on the printing compute node when the environment starts

     Reading input from in_files/si_bench_14.scf

     Current dimensions of program PWSCF are:
     Max number of different atomic species (ntypx) = 10
     Max number of k-points (npk) =  40000
     Max angular momentum in pseudopotentials (lmaxx) =  4

     Subspace diagonalization in iterative solution of the eigenvalue problem:
     a serial algorithm will be used


     Parallelization info
     --------------------
     sticks:   dense  smooth     PW     G-vecs:    dense   smooth      PW
     Min          60      60     18                 1167     1167     195
     Max          61      61     19                 1171     1171     198
     Sum         847     847    253                16361    16361    2733

     Using Slab Decomposition



     bravais-lattice index     =            2
     lattice parameter (alat)  =      10.2000  a.u.
     unit-cell volume          =     265.3020 (a.u.)^3
     number of atoms/cell      =            2
     number of atomic types    =            1
     number of electrons       =         8.00
     number of Kohn-Sham states=            4
     kinetic-energy cutoff     =      59.0000  Ry
     charge density cutoff     =     236.0000  Ry
     scf convergence threshold =      1.0E-12
     mixing beta               =       0.7000
     number of iterations used =            8  plain     mixing
     Exchange-correlation= PBE
                           (   1   4   3   4   0   0   0)

     celldm(1)=  10.200000  celldm(2)=   0.000000  celldm(3)=   0.000000
     celldm(4)=   0.000000  celldm(5)=   0.000000  celldm(6)=   0.000000

     crystal axes: (cart. coord. in units of alat)
               a(1) = (  -0.500000   0.000000   0.500000 )  
               a(2) = (   0.000000   0.500000   0.500000 )  
               a(3) = (  -0.500000   0.500000   0.000000 )  

     reciprocal axes: (cart. coord. in units 2 pi/alat)
               b(1) = ( -1.000000 -1.000000  1.000000 )  
               b(2) = (  1.000000  1.000000  1.000000 )  
               b(3) = ( -1.000000  1.000000 -1.000000 )  


     PseudoPot. # 1 for Si read from file:
     ./pseudos/Si_pbe_v0.4.1.nc.sr.upf
     MD5 check sum: 02fab3f35e82123ef5bf1cb05d5b1a5e
     Pseudo is Norm-conserving + core correction, Zval =  4.0
     Generated using ONCVPSP code by D. R. Hamann
     Using radial grid of 1510 points,  6 beta functions with: 
                l(1) =   0
                l(2) =   0
                l(3) =   1
                l(4) =   1
                l(5) =   2
                l(6) =   2

     atomic species   valence    mass     pseudopotential
        Si             4.00    28.08600     Si( 1.00)

     48 Sym. Ops., with inversion, found (24 have fractional translation)



   Cartesian axes

     site n.     atom                  positions (alat units)
         1           Si  tau(   1) = (   0.0000000   0.0000000   0.0000000  )
         2           Si  tau(   2) = (   0.2500000   0.2500000   0.2500000  )

     number of k points=  3107

     Number of k-points >= 100: set verbosity='high' to print them.

     Dense  grid:    16361 G-vectors     FFT dimensions: (  36,  36,  36)

     Estimated max dynamical RAM per process >      29.61 MB

     Estimated total dynamical RAM >     414.59 MB

     Initial potential from superposition of free atoms

     starting charge       7.9988, renormalised to       8.0000
     Starting wfcs are    8 randomized atomic wfcs

     total cpu time spent up to now is        4.6 secs

     Self-consistent Calculation

     iteration #  1     ecut=    59.00 Ry     beta= 0.70
     Davidson diagonalization with overlap
     ethr =  1.00E-02,  avg # of iterations =  2.0

     Threshold (ethr) on eigenvalues was too large:
     Diagonalizing with lowered threshold

     Davidson diagonalization with overlap
     ethr =  5.86E-04,  avg # of iterations =  2.0

     total cpu time spent up to now is       20.1 secs

     total energy              =     -16.92148845 Ry
     estimated scf accuracy    <       0.05533330 Ry

     iteration #  2     ecut=    59.00 Ry     beta= 0.70
     Davidson diagonalization with overlap
     ethr =  6.92E-04,  avg # of iterations =  1.0

     total cpu time spent up to now is       26.1 secs

     total energy              =     -16.92319765 Ry
     estimated scf accuracy    <       0.00290355 Ry

     iteration #  3     ecut=    59.00 Ry     beta= 0.70
     Davidson diagonalization with overlap
     ethr =  3.63E-05,  avg # of iterations =  2.3

     total cpu time spent up to now is       34.4 secs

     total energy              =     -16.92386469 Ry
     estimated scf accuracy    <       0.00006628 Ry

     iteration #  4     ecut=    59.00 Ry     beta= 0.70
     Davidson diagonalization with overlap
     ethr =  8.29E-07,  avg # of iterations =  5.1

     total cpu time spent up to now is       46.4 secs

     total energy              =     -16.92394893 Ry
     estimated scf accuracy    <       0.00000026 Ry

     iteration #  5     ecut=    59.00 Ry     beta= 0.70
     Davidson diagonalization with overlap
     ethr =  3.27E-09,  avg # of iterations =  6.6

     total cpu time spent up to now is       61.0 secs

     total energy              =     -16.92395068 Ry
     estimated scf accuracy    <          9.4E-09 Ry

     iteration #  6     ecut=    59.00 Ry     beta= 0.70
     Davidson diagonalization with overlap
     ethr =  1.18E-10,  avg # of iterations =  3.5

     total cpu time spent up to now is       70.6 secs

     total energy              =     -16.92395068 Ry
     estimated scf accuracy    <          9.2E-10 Ry

     iteration #  7     ecut=    59.00 Ry     beta= 0.70
     Davidson diagonalization with overlap
     ethr =  1.15E-11,  avg # of iterations =  3.2

     total cpu time spent up to now is       79.9 secs

     total energy              =     -16.92395068 Ry
     estimated scf accuracy    <          1.5E-10 Ry

     iteration #  8     ecut=    59.00 Ry     beta= 0.70
     Davidson diagonalization with overlap
     ethr =  1.92E-12,  avg # of iterations =  2.4

     total cpu time spent up to now is       87.6 secs

     End of self-consistent calculation

     Number of k-points >= 100: set verbosity='high' to print the bands.

     highest occupied level (ev):     6.4228

!    total energy              =     -16.92395068 Ry
     estimated scf accuracy    <          1.2E-13 Ry

     The total energy is the sum of the following terms:
     one-electron contribution =       5.10086789 Ry
     hartree contribution      =       1.07923962 Ry
     xc contribution           =      -6.20429962 Ry
     ewald contribution        =     -16.89975857 Ry

     convergence has been achieved in   8 iterations

     Writing all to output data dir /fastscratch/tsievers/QE_TMP_DIR/silicon_bench_nprocs_14.save/

     init_run     :      4.36s CPU      4.57s WALL (       1 calls)
     electrons    :     78.88s CPU     82.94s WALL (       1 calls)

     Called by init_run:
     wfcinit      :      4.17s CPU      4.37s WALL (       1 calls)
     potinit      :      0.01s CPU      0.01s WALL (       1 calls)
     hinit0       :      0.15s CPU      0.15s WALL (       1 calls)

     Called by electrons:
     c_bands      :     70.72s CPU     74.39s WALL (       9 calls)
     sum_band     :      8.14s CPU      8.51s WALL (       9 calls)
     v_of_rho     :      0.02s CPU      0.03s WALL (       9 calls)
     mix_rho      :      0.00s CPU      0.00s WALL (       9 calls)

     Called by c_bands:
     init_us_2    :      3.73s CPU      3.91s WALL (   59033 calls)
     init_us_2:cp :      3.60s CPU      3.81s WALL (   59033 calls)
     cegterg      :     62.47s CPU     65.69s WALL (   27963 calls)

     Called by *egterg:
     cdiaghg      :      3.67s CPU      3.89s WALL (  112021 calls)
     h_psi        :     54.36s CPU     57.16s WALL (  118235 calls)
     g_psi        :      0.38s CPU      0.40s WALL (   87165 calls)

     Called by h_psi:
     h_psi:calbec :      5.69s CPU      5.98s WALL (  118235 calls)
     vloc_psi     :     43.74s CPU     46.00s WALL (  118235 calls)
     add_vuspsi   :      4.18s CPU      4.41s WALL (  118235 calls)

     General routines
     calbec       :      5.45s CPU      5.77s WALL (  118235 calls)
     fft          :      0.14s CPU      0.14s WALL (      91 calls)
     ffts         :      0.00s CPU      0.00s WALL (       9 calls)
     fftw         :     45.43s CPU     47.74s WALL (  916048 calls)

     Parallel routines

     PWSCF        :   1m24.79s CPU   1m39.39s WALL


   This run was terminated on:  12:17:43  13Feb2022            

=------------------------------------------------------------------------------=
   JOB DONE.
=------------------------------------------------------------------------------=
