Module for gcc 10.2:
(GNU C/C++/FORTRAN compilers v10.2.0) - loaded.
Module for OpenMPI 4.1.0-gcc10.2-infiniband loaded.

     Program PWSCF v.7.0 starts on 13Feb2022 at 12:32: 4 

     This program is part of the open-source Quantum ESPRESSO suite
     for quantum simulation of materials; please cite
         "P. Giannozzi et al., J. Phys.:Condens. Matter 21 395502 (2009);
         "P. Giannozzi et al., J. Phys.:Condens. Matter 29 465901 (2017);
         "P. Giannozzi et al., J. Chem. Phys. 152 154105 (2020);
          URL http://www.quantum-espresso.org", 
     in publications or presentations arising from this work. More details at
     http://www.quantum-espresso.org/quote

     Parallel version (MPI), running on    34 processors

     MPI processes distributed on     2 nodes
     R & G space division:  proc/nbgrp/npool/nimage =      34
     43119 MiB available memory on the printing compute node when the environment starts

     Reading input from in_files/si_bench_34.scf

     Current dimensions of program PWSCF are:
     Max number of different atomic species (ntypx) = 10
     Max number of k-points (npk) =  40000
     Max angular momentum in pseudopotentials (lmaxx) =  4

     Subspace diagonalization in iterative solution of the eigenvalue problem:
     a serial algorithm will be used


     Parallelization info
     --------------------
     sticks:   dense  smooth     PW     G-vecs:    dense   smooth      PW
     Min          24      24      7                  478      478      78
     Max          25      25      8                  482      482      83
     Sum         847     847    253                16361    16361    2733

     Using Slab Decomposition



     bravais-lattice index     =            2
     lattice parameter (alat)  =      10.2000  a.u.
     unit-cell volume          =     265.3020 (a.u.)^3
     number of atoms/cell      =            2
     number of atomic types    =            1
     number of electrons       =         8.00
     number of Kohn-Sham states=            4
     kinetic-energy cutoff     =      59.0000  Ry
     charge density cutoff     =     236.0000  Ry
     scf convergence threshold =      1.0E-12
     mixing beta               =       0.7000
     number of iterations used =            8  plain     mixing
     Exchange-correlation= PBE
                           (   1   4   3   4   0   0   0)

     celldm(1)=  10.200000  celldm(2)=   0.000000  celldm(3)=   0.000000
     celldm(4)=   0.000000  celldm(5)=   0.000000  celldm(6)=   0.000000

     crystal axes: (cart. coord. in units of alat)
               a(1) = (  -0.500000   0.000000   0.500000 )  
               a(2) = (   0.000000   0.500000   0.500000 )  
               a(3) = (  -0.500000   0.500000   0.000000 )  

     reciprocal axes: (cart. coord. in units 2 pi/alat)
               b(1) = ( -1.000000 -1.000000  1.000000 )  
               b(2) = (  1.000000  1.000000  1.000000 )  
               b(3) = ( -1.000000  1.000000 -1.000000 )  


     PseudoPot. # 1 for Si read from file:
     ./pseudos/Si_pbe_v0.4.1.nc.sr.upf
     MD5 check sum: 02fab3f35e82123ef5bf1cb05d5b1a5e
     Pseudo is Norm-conserving + core correction, Zval =  4.0
     Generated using ONCVPSP code by D. R. Hamann
     Using radial grid of 1510 points,  6 beta functions with: 
                l(1) =   0
                l(2) =   0
                l(3) =   1
                l(4) =   1
                l(5) =   2
                l(6) =   2

     atomic species   valence    mass     pseudopotential
        Si             4.00    28.08600     Si( 1.00)

     48 Sym. Ops., with inversion, found (24 have fractional translation)



   Cartesian axes

     site n.     atom                  positions (alat units)
         1           Si  tau(   1) = (   0.0000000   0.0000000   0.0000000  )
         2           Si  tau(   2) = (   0.2500000   0.2500000   0.2500000  )

     number of k points=  3107

     Number of k-points >= 100: set verbosity='high' to print them.

     Dense  grid:    16361 G-vectors     FFT dimensions: (  36,  36,  36)

     Estimated max dynamical RAM per process >      12.86 MB

     Estimated total dynamical RAM >     437.11 MB

     Initial potential from superposition of free atoms

     starting charge       7.9988, renormalised to       8.0000
     Starting wfcs are    8 randomized atomic wfcs

     total cpu time spent up to now is       83.3 secs

     Self-consistent Calculation

     iteration #  1     ecut=    59.00 Ry     beta= 0.70
     Davidson diagonalization with overlap
     ethr =  1.00E-02,  avg # of iterations =  2.0

     Threshold (ethr) on eigenvalues was too large:
     Diagonalizing with lowered threshold

     Davidson diagonalization with overlap
     ethr =  5.86E-04,  avg # of iterations =  2.0

     total cpu time spent up to now is      321.6 secs

     total energy              =     -16.92148848 Ry
     estimated scf accuracy    <       0.05532542 Ry

     iteration #  2     ecut=    59.00 Ry     beta= 0.70
     Davidson diagonalization with overlap
     ethr =  6.92E-04,  avg # of iterations =  1.0

     total cpu time spent up to now is      411.9 secs

     total energy              =     -16.92319853 Ry
     estimated scf accuracy    <       0.00290347 Ry

     iteration #  3     ecut=    59.00 Ry     beta= 0.70
     Davidson diagonalization with overlap
     ethr =  3.63E-05,  avg # of iterations =  2.3

     total cpu time spent up to now is      540.7 secs

     total energy              =     -16.92386388 Ry
     estimated scf accuracy    <       0.00006590 Ry

     iteration #  4     ecut=    59.00 Ry     beta= 0.70
     Davidson diagonalization with overlap
     ethr =  8.24E-07,  avg # of iterations =  5.0

     total cpu time spent up to now is      733.6 secs

     total energy              =     -16.92394893 Ry
     estimated scf accuracy    <       0.00000025 Ry

     iteration #  5     ecut=    59.00 Ry     beta= 0.70
     Davidson diagonalization with overlap
     ethr =  3.11E-09,  avg # of iterations =  6.6

     total cpu time spent up to now is      973.2 secs

     total energy              =     -16.92395068 Ry
     estimated scf accuracy    <          8.2E-09 Ry

     iteration #  6     ecut=    59.00 Ry     beta= 0.70
     Davidson diagonalization with overlap
     ethr =  1.03E-10,  avg # of iterations =  3.5

     total cpu time spent up to now is     1125.9 secs

     total energy              =     -16.92395068 Ry
     estimated scf accuracy    <          7.9E-10 Ry

     iteration #  7     ecut=    59.00 Ry     beta= 0.70
     Davidson diagonalization with overlap
     ethr =  9.85E-12,  avg # of iterations =  3.3

     total cpu time spent up to now is     1272.9 secs

     total energy              =     -16.92395068 Ry
     estimated scf accuracy    <          1.4E-10 Ry

     iteration #  8     ecut=    59.00 Ry     beta= 0.70
     Davidson diagonalization with overlap
     ethr =  1.75E-12,  avg # of iterations =  2.3

     total cpu time spent up to now is     1389.6 secs

     End of self-consistent calculation

     Number of k-points >= 100: set verbosity='high' to print the bands.

     highest occupied level (ev):     6.4228

!    total energy              =     -16.92395068 Ry
     estimated scf accuracy    <          1.2E-13 Ry

     The total energy is the sum of the following terms:
     one-electron contribution =       5.10086790 Ry
     hartree contribution      =       1.07923961 Ry
     xc contribution           =      -6.20429961 Ry
     ewald contribution        =     -16.89975857 Ry

     convergence has been achieved in   8 iterations

     Writing all to output data dir /fastscratch/tsievers/QE_TMP_DIR/silicon_bench_nprocs_34.save/

     init_run     :     41.32s CPU     67.98s WALL (       1 calls)
     electrons    :    789.92s CPU   1306.38s WALL (       1 calls)

     Called by init_run:
     wfcinit      :     41.13s CPU     67.75s WALL (       1 calls)
     potinit      :      0.02s CPU      0.03s WALL (       1 calls)
     hinit0       :      0.15s CPU      0.16s WALL (       1 calls)

     Called by electrons:
     c_bands      :    705.81s CPU   1168.44s WALL (       9 calls)
     sum_band     :     84.00s CPU    137.71s WALL (       9 calls)
     v_of_rho     :      0.10s CPU      0.17s WALL (       9 calls)
     mix_rho      :      0.02s CPU      0.04s WALL (       9 calls)

     Called by c_bands:
     init_us_2    :      1.18s CPU      1.92s WALL (   59033 calls)
     init_us_2:cp :      1.09s CPU      1.81s WALL (   59033 calls)
     cegterg      :    693.34s CPU   1147.72s WALL (   27963 calls)

     Called by *egterg:
     cdiaghg      :      3.30s CPU      5.45s WALL (  112247 calls)
     h_psi        :    625.73s CPU   1035.64s WALL (  118461 calls)
     g_psi        :      0.13s CPU      0.21s WALL (   87391 calls)

     Called by h_psi:
     h_psi:calbec :     74.61s CPU    123.61s WALL (  118461 calls)
     vloc_psi     :    549.21s CPU    908.89s WALL (  118461 calls)
     add_vuspsi   :      1.42s CPU      2.33s WALL (  118461 calls)

     General routines
     calbec       :     74.41s CPU    123.35s WALL (  118461 calls)
     fft          :      0.24s CPU      0.32s WALL (      91 calls)
     ffts         :      0.02s CPU      0.02s WALL (       9 calls)
     fftw         :    629.87s CPU   1041.19s WALL (  917642 calls)

     Parallel routines

     PWSCF        :  14m49.57s CPU  24m49.09s WALL


   This run was terminated on:  12:56:53  13Feb2022            

=------------------------------------------------------------------------------=
   JOB DONE.
=------------------------------------------------------------------------------=
