Module for gcc 10.2:
(GNU C/C++/FORTRAN compilers v10.2.0) - loaded.
Module for OpenMPI 4.1.0-gcc10.2-infiniband loaded.

     Program PWSCF v.7.0 starts on 13Feb2022 at 14:48: 5 

     This program is part of the open-source Quantum ESPRESSO suite
     for quantum simulation of materials; please cite
         "P. Giannozzi et al., J. Phys.:Condens. Matter 21 395502 (2009);
         "P. Giannozzi et al., J. Phys.:Condens. Matter 29 465901 (2017);
         "P. Giannozzi et al., J. Chem. Phys. 152 154105 (2020);
          URL http://www.quantum-espresso.org", 
     in publications or presentations arising from this work. More details at
     http://www.quantum-espresso.org/quote

     Parallel version (MPI), running on    24 processors

     MPI processes distributed on     2 nodes
     R & G space division:  proc/nbgrp/npool/nimage =      24
     44112 MiB available memory on the printing compute node when the environment starts

     Reading input from in_files/si_bench_24.scf

     Current dimensions of program PWSCF are:
     Max number of different atomic species (ntypx) = 10
     Max number of k-points (npk) =  40000
     Max angular momentum in pseudopotentials (lmaxx) =  4

     Subspace diagonalization in iterative solution of the eigenvalue problem:
     a serial algorithm will be used


     Parallelization info
     --------------------
     sticks:   dense  smooth     PW     G-vecs:    dense   smooth      PW
     Min          35      35     10                  680      680     112
     Max          36      36     11                  684      684     116
     Sum         847     847    253                16361    16361    2733

     Using Slab Decomposition



     bravais-lattice index     =            2
     lattice parameter (alat)  =      10.2000  a.u.
     unit-cell volume          =     265.3020 (a.u.)^3
     number of atoms/cell      =            2
     number of atomic types    =            1
     number of electrons       =         8.00
     number of Kohn-Sham states=            4
     kinetic-energy cutoff     =      59.0000  Ry
     charge density cutoff     =     236.0000  Ry
     scf convergence threshold =      1.0E-12
     mixing beta               =       0.7000
     number of iterations used =            8  plain     mixing
     Exchange-correlation= PBE
                           (   1   4   3   4   0   0   0)

     celldm(1)=  10.200000  celldm(2)=   0.000000  celldm(3)=   0.000000
     celldm(4)=   0.000000  celldm(5)=   0.000000  celldm(6)=   0.000000

     crystal axes: (cart. coord. in units of alat)
               a(1) = (  -0.500000   0.000000   0.500000 )  
               a(2) = (   0.000000   0.500000   0.500000 )  
               a(3) = (  -0.500000   0.500000   0.000000 )  

     reciprocal axes: (cart. coord. in units 2 pi/alat)
               b(1) = ( -1.000000 -1.000000  1.000000 )  
               b(2) = (  1.000000  1.000000  1.000000 )  
               b(3) = ( -1.000000  1.000000 -1.000000 )  


     PseudoPot. # 1 for Si read from file:
     ./pseudos/Si_pbe_v0.4.1.nc.sr.upf
     MD5 check sum: 02fab3f35e82123ef5bf1cb05d5b1a5e
     Pseudo is Norm-conserving + core correction, Zval =  4.0
     Generated using ONCVPSP code by D. R. Hamann
     Using radial grid of 1510 points,  6 beta functions with: 
                l(1) =   0
                l(2) =   0
                l(3) =   1
                l(4) =   1
                l(5) =   2
                l(6) =   2

     atomic species   valence    mass     pseudopotential
        Si             4.00    28.08600     Si( 1.00)

     48 Sym. Ops., with inversion, found (24 have fractional translation)



   Cartesian axes

     site n.     atom                  positions (alat units)
         1           Si  tau(   1) = (   0.0000000   0.0000000   0.0000000  )
         2           Si  tau(   2) = (   0.2500000   0.2500000   0.2500000  )

     number of k points=  3107

     Number of k-points >= 100: set verbosity='high' to print them.

     Dense  grid:    16361 G-vectors     FFT dimensions: (  36,  36,  36)

     Estimated max dynamical RAM per process >      17.70 MB

     Estimated total dynamical RAM >     424.83 MB

     Initial potential from superposition of free atoms

     starting charge       7.9988, renormalised to       8.0000
     Starting wfcs are    8 randomized atomic wfcs

     total cpu time spent up to now is       40.9 secs

     Self-consistent Calculation

     iteration #  1     ecut=    59.00 Ry     beta= 0.70
     Davidson diagonalization with overlap
     ethr =  1.00E-02,  avg # of iterations =  2.0

     Threshold (ethr) on eigenvalues was too large:
     Diagonalizing with lowered threshold

     Davidson diagonalization with overlap
     ethr =  5.86E-04,  avg # of iterations =  2.0

     total cpu time spent up to now is      189.1 secs

     total energy              =     -16.92148834 Ry
     estimated scf accuracy    <       0.05533004 Ry

     iteration #  2     ecut=    59.00 Ry     beta= 0.70
     Davidson diagonalization with overlap
     ethr =  6.92E-04,  avg # of iterations =  1.0

     total cpu time spent up to now is      244.8 secs

     total energy              =     -16.92319872 Ry
     estimated scf accuracy    <       0.00290320 Ry

     iteration #  3     ecut=    59.00 Ry     beta= 0.70
     Davidson diagonalization with overlap
     ethr =  3.63E-05,  avg # of iterations =  2.3

     total cpu time spent up to now is      325.0 secs

     total energy              =     -16.92386423 Ry
     estimated scf accuracy    <       0.00006597 Ry

     iteration #  4     ecut=    59.00 Ry     beta= 0.70
     Davidson diagonalization with overlap
     ethr =  8.25E-07,  avg # of iterations =  5.1

     total cpu time spent up to now is      445.9 secs

     total energy              =     -16.92394895 Ry
     estimated scf accuracy    <       0.00000025 Ry

     iteration #  5     ecut=    59.00 Ry     beta= 0.70
     Davidson diagonalization with overlap
     ethr =  3.13E-09,  avg # of iterations =  6.6

     total cpu time spent up to now is      595.3 secs

     total energy              =     -16.92395068 Ry
     estimated scf accuracy    <          7.7E-09 Ry

     iteration #  6     ecut=    59.00 Ry     beta= 0.70
     Davidson diagonalization with overlap
     ethr =  9.62E-11,  avg # of iterations =  3.6

     total cpu time spent up to now is      692.1 secs

     total energy              =     -16.92395068 Ry
     estimated scf accuracy    <          6.8E-10 Ry

     iteration #  7     ecut=    59.00 Ry     beta= 0.70
     Davidson diagonalization with overlap
     ethr =  8.44E-12,  avg # of iterations =  3.3

     total cpu time spent up to now is      785.1 secs

     total energy              =     -16.92395068 Ry
     estimated scf accuracy    <          1.3E-10 Ry

     iteration #  8     ecut=    59.00 Ry     beta= 0.70
     Davidson diagonalization with overlap
     ethr =  1.63E-12,  avg # of iterations =  2.3

     total cpu time spent up to now is      857.7 secs

     End of self-consistent calculation

     Number of k-points >= 100: set verbosity='high' to print the bands.

     highest occupied level (ev):     6.4228

!    total energy              =     -16.92395068 Ry
     estimated scf accuracy    <          1.0E-13 Ry

     The total energy is the sum of the following terms:
     one-electron contribution =       5.10086791 Ry
     hartree contribution      =       1.07923959 Ry
     xc contribution           =      -6.20429960 Ry
     ewald contribution        =     -16.89975857 Ry

     convergence has been achieved in   8 iterations

     Writing all to output data dir /fastscratch/tsievers/QE_TMP_DIR/silicon_bench_nprocs_24.save/

     init_run     :     25.25s CPU     40.69s WALL (       1 calls)
     electrons    :    500.63s CPU    816.85s WALL (       1 calls)

     Called by init_run:
     wfcinit      :     25.06s CPU     40.48s WALL (       1 calls)
     potinit      :      0.02s CPU      0.02s WALL (       1 calls)
     hinit0       :      0.15s CPU      0.15s WALL (       1 calls)

     Called by electrons:
     c_bands      :    450.59s CPU    735.50s WALL (       9 calls)
     sum_band     :     49.98s CPU     81.22s WALL (       9 calls)
     v_of_rho     :      0.05s CPU      0.09s WALL (       9 calls)
     mix_rho      :      0.02s CPU      0.03s WALL (       9 calls)

     Called by c_bands:
     init_us_2    :      1.65s CPU      2.64s WALL (   59033 calls)
     init_us_2:cp :      1.57s CPU      2.54s WALL (   59033 calls)
     cegterg      :    438.64s CPU    716.30s WALL (   27963 calls)

     Called by *egterg:
     cdiaghg      :      2.62s CPU      4.26s WALL (  112610 calls)
     h_psi        :    386.45s CPU    630.61s WALL (  118824 calls)
     g_psi        :      0.17s CPU      0.28s WALL (   87754 calls)

     Called by h_psi:
     h_psi:calbec :     59.02s CPU     96.97s WALL (  118824 calls)
     vloc_psi     :    325.08s CPU    529.83s WALL (  118824 calls)
     add_vuspsi   :      1.85s CPU      3.01s WALL (  118824 calls)

     General routines
     calbec       :     58.86s CPU     96.72s WALL (  118824 calls)
     fft          :      0.18s CPU      0.21s WALL (      91 calls)
     ffts         :      0.01s CPU      0.01s WALL (       9 calls)
     fftw         :    371.62s CPU    605.55s WALL (  918596 calls)

     Parallel routines

     PWSCF        :   9m19.83s CPU  15m24.21s WALL


   This run was terminated on:  15: 3:29  13Feb2022            

=------------------------------------------------------------------------------=
   JOB DONE.
=------------------------------------------------------------------------------=
