Module for intel-oneAPI 2021.4 loaded.
 
:: initializing oneAPI environment ...
   3071262: BASH_VERSION = 4.4.20(1)-release
:: advisor -- latest
:: ccl -- latest
:: clck -- latest
:: compiler -- latest
:: dal -- latest
:: debugger -- latest
:: dev-utilities -- latest
:: dnnl -- latest
:: dpcpp-ct -- latest
:: dpl -- latest
:: inspector -- latest
:: intelpython -- latest
:: ipp -- latest
:: ippcp -- latest
:: ipp -- latest
:: itac -- latest
:: LPOT -- latest
:: mkl -- latest
:: modelzoo -- latest
:: mpi -- latest
:: pytorch -- latest
:: tbb -- latest
:: tensorflow -- latest
:: vpl -- latest
:: vtune -- latest
:: oneAPI environment initialized ::
 

     Program PWSCF v.7.0 starts on 27Jun2022 at 17:31:10 

     This program is part of the open-source Quantum ESPRESSO suite
     for quantum simulation of materials; please cite
         "P. Giannozzi et al., J. Phys.:Condens. Matter 21 395502 (2009);
         "P. Giannozzi et al., J. Phys.:Condens. Matter 29 465901 (2017);
         "P. Giannozzi et al., J. Chem. Phys. 152 154105 (2020);
          URL http://www.quantum-espresso.org", 
     in publications or presentations arising from this work. More details at
     http://www.quantum-espresso.org/quote

     Parallel version (MPI), running on    32 processors

     MPI processes distributed on     2 nodes
     R & G space division:  proc/nbgrp/npool/nimage =      32
     59622 MiB available memory on the printing compute node when the environment starts
 
     Reading input from in_files/silicon_ph_bench_nd_4_n_procs_32_4.scf

     Current dimensions of program PWSCF are:
     Max number of different atomic species (ntypx) = 10
     Max number of k-points (npk) =  40000
     Max angular momentum in pseudopotentials (lmaxx) =  4

     Subspace diagonalization in iterative solution of the eigenvalue problem:
     one sub-group per band group will be used
     scalapack distributed-memory algorithm (size of sub-group:  2*  2 procs)

 
     Parallelization info
     --------------------
     sticks:   dense  smooth     PW     G-vecs:    dense   smooth      PW
     Min          31      31      9                  651      651     107
     Max          32      32     10                  654      654     111
     Sum        1003    1003    301                20875    20875    3479
 
     Using Slab Decomposition
 


     bravais-lattice index     =            2
     lattice parameter (alat)  =      10.1899  a.u.
     unit-cell volume          =     264.5151 (a.u.)^3
     number of atoms/cell      =            2
     number of atomic types    =            1
     number of electrons       =         8.00
     number of Kohn-Sham states=            4
     kinetic-energy cutoff     =      70.0000  Ry
     charge density cutoff     =     280.0000  Ry
     scf convergence threshold =      1.0E-10
     mixing beta               =       0.7000
     number of iterations used =            8  plain     mixing
     Exchange-correlation= SLA  PW   NOGX NOGC
                           (   1   4   0   0   0   0   0)

     celldm(1)=  10.189905  celldm(2)=   0.000000  celldm(3)=   0.000000
     celldm(4)=   0.000000  celldm(5)=   0.000000  celldm(6)=   0.000000

     crystal axes: (cart. coord. in units of alat)
               a(1) = (  -0.500000   0.000000   0.500000 )  
               a(2) = (   0.000000   0.500000   0.500000 )  
               a(3) = (  -0.500000   0.500000   0.000000 )  

     reciprocal axes: (cart. coord. in units 2 pi/alat)
               b(1) = ( -1.000000 -1.000000  1.000000 )  
               b(2) = (  1.000000  1.000000  1.000000 )  
               b(3) = ( -1.000000  1.000000 -1.000000 )  


     PseudoPot. # 1 for Si read from file:
     ./pseudos/Si.nc.UPF
     MD5 check sum: 9e2d726316af3d4752eea8ab0afbb951
     Pseudo is Norm-conserving + core correction, Zval =  4.0
     Generated using ONCVPSP code by D. R. Hamann
     Using radial grid of 1510 points,  6 beta functions with: 
                l(1) =   0
                l(2) =   0
                l(3) =   1
                l(4) =   1
                l(5) =   2
                l(6) =   2

     atomic species   valence    mass     pseudopotential
        Si             4.00    28.08550     Si( 1.00)

     48 Sym. Ops., with inversion, found (24 have fractional translation)



   Cartesian axes

     site n.     atom                  positions (alat units)
         1           Si  tau(   1) = (   0.0000000   0.0000000   0.0000000  )
         2           Si  tau(   2) = (  -0.2500000   0.2500000   0.2500000  )

     number of k points=    28
                       cart. coord. in units 2pi/alat
        k(    1) = (  -0.0833333   0.0833333   0.0833333), wk =   0.0185185
        k(    2) = (  -0.2500000   0.2500000  -0.0833333), wk =   0.0555556
        k(    3) = (  -0.4166667   0.4166667  -0.2500000), wk =   0.0555556
        k(    4) = (   0.4166667  -0.4166667   0.5833333), wk =   0.0555556
        k(    5) = (   0.2500000  -0.2500000   0.4166667), wk =   0.0555556
        k(    6) = (   0.0833333  -0.0833333   0.2500000), wk =   0.0555556
        k(    7) = (  -0.0833333   0.4166667   0.0833333), wk =   0.0555556
        k(    8) = (  -0.2500000   0.5833333  -0.0833333), wk =   0.1111111
        k(    9) = (   0.5833333  -0.2500000   0.7500000), wk =   0.1111111
        k(   10) = (   0.4166667  -0.0833333   0.5833333), wk =   0.1111111
        k(   11) = (   0.2500000   0.0833333   0.4166667), wk =   0.1111111
        k(   12) = (  -0.0833333   0.7500000   0.0833333), wk =   0.0555556
        k(   13) = (   0.7500000  -0.0833333   0.9166667), wk =   0.1111111
        k(   14) = (   0.5833333   0.0833333   0.7500000), wk =   0.1111111
        k(   15) = (   0.4166667   0.2500000   0.5833333), wk =   0.1111111
        k(   16) = (  -0.0833333  -0.9166667   0.0833333), wk =   0.0555556
        k(   17) = (  -0.2500000  -0.7500000  -0.0833333), wk =   0.1111111
        k(   18) = (  -0.0833333  -0.5833333   0.0833333), wk =   0.0555556
        k(   19) = (  -0.2500000   0.2500000   0.2500000), wk =   0.0185185
        k(   20) = (  -0.4166667   0.4166667   0.0833333), wk =   0.0555556
        k(   21) = (   0.4166667  -0.4166667   0.9166667), wk =   0.0555556
        k(   22) = (   0.2500000  -0.2500000   0.7500000), wk =   0.0555556
        k(   23) = (  -0.2500000   0.5833333   0.2500000), wk =   0.0555556
        k(   24) = (   0.5833333  -0.2500000   1.0833333), wk =   0.1111111
        k(   25) = (   0.4166667  -0.0833333   0.9166667), wk =   0.1111111
        k(   26) = (  -0.2500000  -1.0833333   0.2500000), wk =   0.0555556
        k(   27) = (  -0.4166667   0.4166667   0.4166667), wk =   0.0185185
        k(   28) = (   0.4166667  -0.4166667   1.2500000), wk =   0.0555556

     Dense  grid:    20875 G-vectors     FFT dimensions: (  40,  40,  40)

     Estimated max dynamical RAM per process >       2.04 MB

     Estimated total dynamical RAM >      65.43 MB

     Initial potential from superposition of free atoms

     starting charge       7.9989, renormalised to       8.0000
     Starting wfcs are    8 randomized atomic wfcs

     total cpu time spent up to now is       15.6 secs

     Self-consistent Calculation

     iteration #  1     ecut=    70.00 Ry     beta= 0.70
     Davidson diagonalization with overlap
     ethr =  1.00E-02,  avg # of iterations =  2.0

     Threshold (ethr) on eigenvalues was too large:
     Diagonalizing with lowered threshold

     Davidson diagonalization with overlap
     ethr =  6.12E-04,  avg # of iterations =  2.0

     total cpu time spent up to now is       16.0 secs

     total energy              =     -17.04763833 Ry
     estimated scf accuracy    <       0.05795267 Ry

     iteration #  2     ecut=    70.00 Ry     beta= 0.70
     Davidson diagonalization with overlap
     ethr =  7.24E-04,  avg # of iterations =  1.0

     total cpu time spent up to now is       16.2 secs

     total energy              =     -17.04995882 Ry
     estimated scf accuracy    <       0.00249508 Ry

     iteration #  3     ecut=    70.00 Ry     beta= 0.70
     Davidson diagonalization with overlap
     ethr =  3.12E-05,  avg # of iterations =  3.1

     total cpu time spent up to now is       16.5 secs

     total energy              =     -17.05082881 Ry
     estimated scf accuracy    <       0.00009714 Ry

     iteration #  4     ecut=    70.00 Ry     beta= 0.70
     Davidson diagonalization with overlap
     ethr =  1.21E-06,  avg # of iterations =  4.2

     total cpu time spent up to now is       16.8 secs

     total energy              =     -17.05089770 Ry
     estimated scf accuracy    <       0.00000373 Ry

     iteration #  5     ecut=    70.00 Ry     beta= 0.70
     Davidson diagonalization with overlap
     ethr =  4.67E-08,  avg # of iterations =  4.6

     total cpu time spent up to now is       17.2 secs

     total energy              =     -17.05090098 Ry
     estimated scf accuracy    <       0.00000017 Ry

     iteration #  6     ecut=    70.00 Ry     beta= 0.70
     Davidson diagonalization with overlap
     ethr =  2.15E-09,  avg # of iterations =  3.4

     total cpu time spent up to now is       17.5 secs

     total energy              =     -17.05090106 Ry
     estimated scf accuracy    <       0.00000001 Ry

     iteration #  7     ecut=    70.00 Ry     beta= 0.70
     Davidson diagonalization with overlap
     ethr =  1.63E-10,  avg # of iterations =  3.7

     total cpu time spent up to now is       17.8 secs

     End of self-consistent calculation

          k =-0.0833 0.0833 0.0833 (  2667 PWs)   bands (ev):

    -5.7561   5.3866   6.1106   6.1106

          k =-0.2500 0.2500-0.0833 (  2621 PWs)   bands (ev):

    -5.2692   3.2787   4.8359   5.9020

          k =-0.4167 0.4167-0.2500 (  2618 PWs)   bands (ev):

    -4.1491   0.4558   4.3704   5.2525

          k = 0.4167-0.4167 0.5833 (  2604 PWs)   bands (ev):

    -3.4238  -0.7235   4.4440   4.8612

          k = 0.2500-0.2500 0.4167 (  2618 PWs)   bands (ev):

    -4.5725   1.3222   4.9163   4.9543

          k = 0.0833-0.0833 0.2500 (  2643 PWs)   bands (ev):

    -5.5104   4.3092   5.4447   5.6431

          k =-0.0833 0.4167 0.0833 (  2627 PWs)   bands (ev):

    -5.0231   3.1094   4.6844   4.6977

          k =-0.2500 0.5833-0.0833 (  2613 PWs)   bands (ev):

    -4.0918   1.2428   3.3199   4.3008

          k = 0.5833-0.2500 0.7500 (  2616 PWs)   bands (ev):

    -2.9383  -0.5645   2.7090   4.0652

          k = 0.4167-0.0833 0.5833 (  2617 PWs)   bands (ev):

    -3.6856   0.5301   2.6549   4.5685

          k = 0.2500 0.0833 0.4167 (  2624 PWs)   bands (ev):

    -4.7922   2.2460   4.0374   5.2604

          k =-0.0833 0.7500 0.0833 (  2617 PWs)   bands (ev):

    -3.3664   0.4197   3.2861   3.6484

          k = 0.7500-0.0833 0.9167 (  2608 PWs)   bands (ev):

    -2.1400  -0.9430   2.4039   3.2177

          k = 0.5833 0.0833 0.7500 (  2608 PWs)   bands (ev):

    -2.5099  -0.6178   1.9049   3.7798

          k = 0.4167 0.2500 0.5833 (  2622 PWs)   bands (ev):

    -3.5664  -0.1967   3.6417   4.6731

          k =-0.0833-0.9167 0.0833 (  2604 PWs)   bands (ev):

    -2.2385  -0.9535   3.0091   3.4291

          k =-0.2500-0.7500-0.0833 (  2615 PWs)   bands (ev):

    -3.1914   0.1893   2.7413   3.5675

          k =-0.0833-0.5833 0.0833 (  2620 PWs)   bands (ev):

    -4.3033   1.8031   3.8480   4.0788

          k =-0.2500 0.2500 0.2500 (  2632 PWs)   bands (ev):

    -5.0343   2.2731   5.4857   5.4857

          k =-0.4167 0.4167 0.0833 (  2620 PWs)   bands (ev):

    -4.3392   1.3430   3.2813   5.3165

          k = 0.4167-0.4167 0.9167 (  2613 PWs)   bands (ev):

    -3.1274  -0.1140   2.1362   4.5076

          k = 0.2500-0.2500 0.7500 (  2618 PWs)   bands (ev):

    -3.0761  -0.1941   2.6355   4.0115

          k =-0.2500 0.5833 0.2500 (  2613 PWs)   bands (ev):

    -3.9042   0.5133   3.7736   4.3933

          k = 0.5833-0.2500 1.0833 (  2619 PWs)   bands (ev):

    -2.8765  -0.2149   2.2381   3.5572

          k = 0.4167-0.0833 0.9167 (  2613 PWs)   bands (ev):

    -2.0245  -0.9506   2.0592   2.8637

          k =-0.2500-1.0833 0.2500 (  2605 PWs)   bands (ev):

    -2.2385  -0.8649   1.9289   3.8127

          k =-0.4167 0.4167 0.4167 (  2602 PWs)   bands (ev):

    -3.8074  -0.3119   5.0941   5.0941

          k = 0.4167-0.4167 1.2500 (  2605 PWs)   bands (ev):

    -3.1840  -0.6106   3.2018   4.6388

     highest occupied level (ev):     6.1106

!    total energy              =     -17.05090107 Ry
     estimated scf accuracy    <          6.8E-11 Ry

     The total energy is the sum of the following terms:
     one-electron contribution =       5.01080664 Ry
     hartree contribution      =       1.07710344 Ry
     xc contribution           =      -6.22230986 Ry
     ewald contribution        =     -16.91650128 Ry

     convergence has been achieved in   7 iterations

     Forces acting on atoms (cartesian axes, Ry/au):

     atom    1 type  1   force =     0.00000000    0.00000000    0.00000000
     atom    2 type  1   force =    -0.00000000   -0.00000000   -0.00000000

     Total force =     0.000000     Total SCF correction =     0.000000

     Writing all to output data dir /fastscratch/tsievers/QE_TMP_DIR/silicon_ph_bench_nd_4_n_procs_32_4.save/
 
     init_run     :      0.14s CPU      0.19s WALL (       1 calls)
     electrons    :      2.16s CPU      2.42s WALL (       1 calls)
     forces       :      0.01s CPU      0.01s WALL (       1 calls)

     Called by init_run:
     wfcinit      :      0.12s CPU      0.12s WALL (       1 calls)
     potinit      :      0.00s CPU      0.00s WALL (       1 calls)
     hinit0       :      0.01s CPU      0.05s WALL (       1 calls)

     Called by electrons:
     c_bands      :      1.95s CPU      2.00s WALL (       8 calls)
     sum_band     :      0.20s CPU      0.20s WALL (       8 calls)
     v_of_rho     :      0.01s CPU      0.01s WALL (       8 calls)
     mix_rho      :      0.00s CPU      0.00s WALL (       8 calls)

     Called by c_bands:
     init_us_2    :      0.02s CPU      0.02s WALL (     504 calls)
     init_us_2:cp :      0.02s CPU      0.02s WALL (     504 calls)
     cegterg      :      1.88s CPU      1.93s WALL (     224 calls)

     Called by *egterg:
     cdiaghg      :      0.41s CPU      0.42s WALL (     868 calls)
     h_psi        :      1.36s CPU      1.39s WALL (     924 calls)
     g_psi        :      0.00s CPU      0.00s WALL (     672 calls)

     Called by h_psi:
     h_psi:calbec :      0.05s CPU      0.05s WALL (     924 calls)
     vloc_psi     :      1.28s CPU      1.31s WALL (     924 calls)
     add_vuspsi   :      0.02s CPU      0.02s WALL (     924 calls)

     General routines
     calbec       :      0.05s CPU      0.06s WALL (    1036 calls)
     fft          :      0.01s CPU      0.05s WALL (      28 calls)
     ffts         :      0.00s CPU      0.00s WALL (       8 calls)
     fftw         :      1.43s CPU      1.47s WALL (    7124 calls)
 
     Parallel routines
 
     PWSCF        :     17.51s CPU     20.98s WALL

 
   This run was terminated on:  17:31:31  27Jun2022            

=------------------------------------------------------------------------------=
   JOB DONE.
=------------------------------------------------------------------------------=

     Program PHONON v.7.0 starts on 27Jun2022 at 17:31:35 

     This program is part of the open-source Quantum ESPRESSO suite
     for quantum simulation of materials; please cite
         "P. Giannozzi et al., J. Phys.:Condens. Matter 21 395502 (2009);
         "P. Giannozzi et al., J. Phys.:Condens. Matter 29 465901 (2017);
         "P. Giannozzi et al., J. Chem. Phys. 152 154105 (2020);
          URL http://www.quantum-espresso.org", 
     in publications or presentations arising from this work. More details at
     http://www.quantum-espresso.org/quote

     Parallel version (MPI), running on    32 processors

     MPI processes distributed on     2 nodes
     R & G space division:  proc/nbgrp/npool/nimage =      32
     59616 MiB available memory on the printing compute node when the environment starts
 
     Reading input from in_files/silicon_ph_bench_nd_4_n_procs_32_4.ph
      Title line not specified: using 'default'.

     Reading xml data from directory:

     /fastscratch/tsievers/QE_TMP_DIR/silicon_ph_bench_nd_4_n_procs_32_4.save/

     IMPORTANT: XC functional enforced from input :
     Exchange-correlation= PW
                           (   1   4   0   0   0   0   0)
     Any further DFT definition will be discarded
     Please, verify this is what you really want

 
     Parallelization info
     --------------------
     sticks:   dense  smooth     PW     G-vecs:    dense   smooth      PW
     Min          31      31      9                  651      651     107
     Max          32      32     10                  654      654     111
     Sum        1003    1003    301                20875    20875    3479
 
     Using Slab Decomposition
 
     Reading collected, re-writing distributed wavefunctions


     Dynamical matrices for ( 6, 6, 6)  uniform grid of q-points
     (  16 q-points):
       N         xq(1)         xq(2)         xq(3) 
       1   0.000000000   0.000000000   0.000000000
       2  -0.166666667   0.166666667  -0.166666667
       3  -0.333333333   0.333333333  -0.333333333
       4   0.500000000  -0.500000000   0.500000000
       5   0.000000000   0.333333333   0.000000000
       6  -0.166666667   0.500000000  -0.166666667
       7   0.666666667  -0.333333333   0.666666667
       8   0.500000000  -0.166666667   0.500000000
       9   0.333333333   0.000000000   0.333333333
      10   0.000000000   0.666666667   0.000000000
      11   0.833333333  -0.166666667   0.833333333
      12   0.666666667  -0.000000000   0.666666667
      13   0.000000000  -1.000000000   0.000000000
      14   0.666666667  -0.333333333   1.000000000
      15   0.500000000  -0.166666667   0.833333333
      16  -0.333333333  -1.000000000   0.000000000

     Calculation of q =    0.0000000   0.0000000   0.0000000

     default                                                                    

     bravais-lattice index     =            2
     lattice parameter (alat)  =      10.1899  a.u.
     unit-cell volume          =     264.5151 (a.u.)^3
     number of atoms/cell      =            2
     number of atomic types    =            1
     kinetic-energy cut-off    =      70.0000  Ry
     charge density cut-off    =     280.0000  Ry
     convergence threshold     =      1.0E-15
     beta                      =       0.7000
     number of iterations used =            4
     Exchange-correlation= PW
                           (   1   4   0   0   0   0   0)


     celldm(1)=   10.18990  celldm(2)=    0.00000  celldm(3)=    0.00000
     celldm(4)=    0.00000  celldm(5)=    0.00000  celldm(6)=    0.00000

     crystal axes: (cart. coord. in units of alat)
               a(1) = ( -0.5000  0.0000  0.5000 )  
               a(2) = (  0.0000  0.5000  0.5000 )  
               a(3) = ( -0.5000  0.5000  0.0000 )  

     reciprocal axes: (cart. coord. in units 2 pi/alat)
               b(1) = ( -1.0000 -1.0000  1.0000 )  
               b(2) = (  1.0000  1.0000  1.0000 )  
               b(3) = ( -1.0000  1.0000 -1.0000 )  


     Atoms inside the unit cell: 

     Cartesian axes

     site n.  atom      mass           positions (alat units)
        1     Si  28.0855   tau(    1) = (    0.00000    0.00000    0.00000  )
        2     Si  28.0855   tau(    2) = (   -0.25000    0.25000    0.25000  )

     Computing dynamical matrix for 
                    q = (   0.0000000   0.0000000   0.0000000 )
 
     49 Sym.Ops. (with q -> -q+G )


     G cutoff =  736.4420  (    652 G-vectors)     FFT grid: ( 40, 40, 40)
     number of k points=    28

     PseudoPot. # 1 for Si read from file:
     ./pseudos/Si.nc.UPF
     MD5 check sum: 9e2d726316af3d4752eea8ab0afbb951
     Pseudo is Norm-conserving + core correction, Zval =  4.0
     Generated using ONCVPSP code by D. R. Hamann
     Using radial grid of 1510 points,  6 beta functions with: 
                l(1) =   0
                l(2) =   0
                l(3) =   1
                l(4) =   1
                l(5) =   2
                l(6) =   2

     Mode symmetry, O_h (m-3m)  point group:


     Electric field:
     Dielectric constant
     Born effective charges in two ways 


     Atomic displacements:
     There are    2 irreducible representations

     Representation     1      3 modes -  To be done

     Representation     2      3 modes -  To be done



     Alpha used in Ewald sum =   2.8000
     PHONON       :      0.30s CPU      0.69s WALL


     Electric Fields Calculation

      iter #   1 total cpu time :     6.7 secs   av.it.:   6.5
      thresh= 1.000E-02 alpha_mix =  0.700 |ddv_scf|^2 =  4.494E-08

      iter #   2 total cpu time :    13.5 secs   av.it.:  12.2
      thresh= 2.120E-05 alpha_mix =  0.700 |ddv_scf|^2 =  1.926E-09

      iter #   3 total cpu time :    15.9 secs   av.it.:  12.0
      thresh= 4.389E-06 alpha_mix =  0.700 |ddv_scf|^2 =  2.171E-11

      iter #   4 total cpu time :    18.3 secs   av.it.:  12.3
      thresh= 4.660E-07 alpha_mix =  0.700 |ddv_scf|^2 =  1.288E-13

      iter #   5 total cpu time :    20.5 secs   av.it.:  11.4
      thresh= 3.589E-08 alpha_mix =  0.700 |ddv_scf|^2 =  4.731E-17

     End of electric fields calculation

          Dielectric constant in cartesian axis 

          (      13.312111711      -0.000000000      -0.000000000 )
          (      -0.000000000      13.312111711       0.000000000 )
          (      -0.000000000       0.000000000      13.312111711 )

          Effective charges (d Force / dE) in cartesian axis without acoustic sum rule applied (asr)

           atom      1   Si Mean Z*:       -0.00677
      Ex  (       -0.00677        0.00000        0.00000 )
      Ey  (        0.00000       -0.00677        0.00000 )
      Ez  (        0.00000        0.00000       -0.00677 )
           atom      2   Si Mean Z*:       -0.00677
      Ex  (       -0.00677       -0.00000        0.00000 )
      Ey  (        0.00000       -0.00677        0.00000 )
      Ez  (        0.00000        0.00000       -0.00677 )

          Effective charges Sum: Mean:       -0.01354
             -0.01354        0.00000        0.00000
              0.00000       -0.01354        0.00000
              0.00000        0.00000       -0.01354

          Effective charges (d Force / dE) in cartesian axis with asr applied: 
           atom      1   Si Mean Z*:        0.00000
      E*x (        0.00000        0.00000        0.00000 )
      E*y (        0.00000        0.00000       -0.00000 )
      E*z (        0.00000       -0.00000        0.00000 )
           atom      2   Si Mean Z*:       -0.00000
      E*x (        0.00000       -0.00000       -0.00000 )
      E*y (       -0.00000       -0.00000        0.00000 )
      E*z (        0.00000        0.00000        0.00000 )


     Representation #   1 modes #   1   2   3

     Self-consistent Calculation

      iter #   1 total cpu time :    24.7 secs   av.it.:   5.8
      thresh= 1.000E-02 alpha_mix =  0.700 |ddv_scf|^2 =  6.479E-09

      iter #   2 total cpu time :    28.3 secs   av.it.:  12.1
      thresh= 8.049E-06 alpha_mix =  0.700 |ddv_scf|^2 =  1.456E-10

      iter #   3 total cpu time :    31.5 secs   av.it.:  12.1
      thresh= 1.207E-06 alpha_mix =  0.700 |ddv_scf|^2 =  5.435E-12

      iter #   4 total cpu time :    35.4 secs   av.it.:  11.9
      thresh= 2.331E-07 alpha_mix =  0.700 |ddv_scf|^2 =  1.760E-14

      iter #   5 total cpu time :    37.8 secs   av.it.:  12.2
      thresh= 1.327E-08 alpha_mix =  0.700 |ddv_scf|^2 =  8.178E-17

     End of self-consistent calculation

     Convergence has been achieved 


     Representation #   2 modes #   4   5   6

     Self-consistent Calculation

      iter #   1 total cpu time :    39.8 secs   av.it.:   6.0
      thresh= 1.000E-02 alpha_mix =  0.700 |ddv_scf|^2 =  4.676E-09

      iter #   2 total cpu time :    42.6 secs   av.it.:  12.4
      thresh= 6.838E-06 alpha_mix =  0.700 |ddv_scf|^2 =  1.682E-10

      iter #   3 total cpu time :    45.1 secs   av.it.:  12.3
      thresh= 1.297E-06 alpha_mix =  0.700 |ddv_scf|^2 =  7.655E-12

      iter #   4 total cpu time :    47.6 secs   av.it.:  12.2
      thresh= 2.767E-07 alpha_mix =  0.700 |ddv_scf|^2 =  1.370E-14

      iter #   5 total cpu time :    50.0 secs   av.it.:  12.3
      thresh= 1.171E-08 alpha_mix =  0.700 |ddv_scf|^2 =  3.668E-17

     End of self-consistent calculation

     Convergence has been achieved 
 
     Number of q in the star =    1
     List of q in the star:
          1   0.000000000   0.000000000   0.000000000

          Dielectric constant in cartesian axis 

          (      13.312111711      -0.000000000      -0.000000000 )
          (      -0.000000000      13.312111711       0.000000000 )
          (      -0.000000000       0.000000000      13.312111711 )

          Effective charges (d Force / dE) in cartesian axis without acoustic sum rule applied (asr)

           atom      1   Si Mean Z*:       -0.00677
      Ex  (       -0.00677        0.00000        0.00000 )
      Ey  (        0.00000       -0.00677        0.00000 )
      Ez  (        0.00000        0.00000       -0.00677 )
           atom      2   Si Mean Z*:       -0.00677
      Ex  (       -0.00677       -0.00000        0.00000 )
      Ey  (        0.00000       -0.00677        0.00000 )
      Ez  (        0.00000        0.00000       -0.00677 )

          Effective charges Sum: Mean:       -0.01354
             -0.01354        0.00000        0.00000
              0.00000       -0.01354        0.00000
              0.00000        0.00000       -0.01354

          Effective charges (d Force / dE) in cartesian axis with asr applied: 
           atom      1   Si Mean Z*:        0.00000
      E*x (        0.00000        0.00000        0.00000 )
      E*y (        0.00000        0.00000       -0.00000 )
      E*z (        0.00000       -0.00000        0.00000 )
           atom      2   Si Mean Z*:       -0.00000
      E*x (        0.00000       -0.00000       -0.00000 )
      E*y (       -0.00000       -0.00000        0.00000 )
      E*z (        0.00000        0.00000        0.00000 )

          Effective charges (d P / du) in cartesian axis 

           atom      1   Si 
      Px  (       -0.00684       -0.00000        0.00000 )
      Py  (       -0.00000       -0.00684        0.00000 )
      Pz  (       -0.00000        0.00000       -0.00684 )
           atom      2   Si 
      Px  (       -0.00684       -0.00000        0.00000 )
      Py  (        0.00000       -0.00684       -0.00000 )
      Pz  (        0.00000       -0.00000       -0.00684 )

     Diagonalizing the dynamical matrix

     q = (    0.000000000   0.000000000   0.000000000 ) 

 **************************************************************************
     freq (    1) =      -0.114381 [THz] =      -3.815336 [cm-1]
     freq (    2) =      -0.114381 [THz] =      -3.815336 [cm-1]
     freq (    3) =      -0.114381 [THz] =      -3.815336 [cm-1]
     freq (    4) =      15.412090 [THz] =     514.091974 [cm-1]
     freq (    5) =      15.412090 [THz] =     514.091974 [cm-1]
     freq (    6) =      15.412090 [THz] =     514.091974 [cm-1]
 **************************************************************************

     Mode symmetry, O_h (m-3m)  point group:

     freq (   1-   3) =         -3.8  [cm-1]   --> T_1u G_15  G_4- I  
     freq (   4-   6) =        514.1  [cm-1]   --> T_2g G_25' G_5+ R  

     Calculation of q =   -0.1666667   0.1666667  -0.1666667

     Subspace diagonalization in iterative solution of the eigenvalue problem:
     one sub-group per band group will be used
     scalapack distributed-memory algorithm (size of sub-group:  2*  2 procs)

 
     Parallelization info
     --------------------
     sticks:   dense  smooth     PW     G-vecs:    dense   smooth      PW
     Min          31      31      9                  651      651     113
     Max          32      32     10                  654      654     117
     Sum        1003    1003    313                20875    20875    3695
 
     Using Slab Decomposition
 

     Title: 
     default                                                                    


     bravais-lattice index     =            2
     lattice parameter (alat)  =      10.1899  a.u.
     unit-cell volume          =     264.5151 (a.u.)^3
     number of atoms/cell      =            2
     number of atomic types    =            1
     number of electrons       =         8.00
     number of Kohn-Sham states=            4
     kinetic-energy cutoff     =      70.0000  Ry
     charge density cutoff     =     280.0000  Ry
     Exchange-correlation= PW
                           (   1   4   0   0   0   0   0)

     celldm(1)=  10.189905  celldm(2)=   0.000000  celldm(3)=   0.000000
     celldm(4)=   0.000000  celldm(5)=   0.000000  celldm(6)=   0.000000

     crystal axes: (cart. coord. in units of alat)
               a(1) = (  -0.500000   0.000000   0.500000 )  
               a(2) = (   0.000000   0.500000   0.500000 )  
               a(3) = (  -0.500000   0.500000   0.000000 )  

     reciprocal axes: (cart. coord. in units 2 pi/alat)
               b(1) = ( -1.000000 -1.000000  1.000000 )  
               b(2) = (  1.000000  1.000000  1.000000 )  
               b(3) = ( -1.000000  1.000000 -1.000000 )  


     PseudoPot. # 1 for Si read from file:
     ./pseudos/Si.nc.UPF
     MD5 check sum: 9e2d726316af3d4752eea8ab0afbb951
     Pseudo is Norm-conserving + core correction, Zval =  4.0
     Generated using ONCVPSP code by D. R. Hamann
     Using radial grid of 1510 points,  6 beta functions with: 
                l(1) =   0
                l(2) =   0
                l(3) =   1
                l(4) =   1
                l(5) =   2
                l(6) =   2

     atomic species   valence    mass     pseudopotential
        Si             4.00    28.08550     Si( 1.00)

     48 Sym. Ops., with inversion, found



   Cartesian axes

     site n.     atom                  positions (alat units)
         1           Si  tau(   1) = (   0.0000000   0.0000000   0.0000000  )
         2           Si  tau(   2) = (  -0.2500000   0.2500000   0.2500000  )

     number of k points=   364

     Number of k-points >= 100: set verbosity='high' to print them.

     Dense  grid:    20875 G-vectors     FFT dimensions: (  40,  40,  40)

     Estimated max dynamical RAM per process >       1.75 MB

     Estimated total dynamical RAM >      56.03 MB

     The potential is recalculated from file :
     /fastscratch/tsievers/QE_TMP_DIR/_ph0/silicon_ph_bench_nd_4_n_procs_32_4.save/charge-density

     Starting wfcs are    8 atomic wfcs

     Band Structure Calculation
     Davidson diagonalization with overlap

     ethr =  1.25E-10,  avg # of iterations = 12.9

     total cpu time spent up to now is       13.6 secs

     End of band structure calculation

     Number of k-points >= 100: set verbosity='high' to print the bands.

     highest occupied level (ev):     6.1106

     Writing config to output data dir /fastscratch/tsievers/QE_TMP_DIR/_ph0/silicon_ph_bench_nd_4_n_procs_32_4.save/

     default                                                                    

     bravais-lattice index     =            2
     lattice parameter (alat)  =      10.1899  a.u.
     unit-cell volume          =     264.5151 (a.u.)^3
     number of atoms/cell      =            2
     number of atomic types    =            1
     kinetic-energy cut-off    =      70.0000  Ry
     charge density cut-off    =     280.0000  Ry
     convergence threshold     =      1.0E-15
     beta                      =       0.7000
     number of iterations used =            4
     Exchange-correlation= PW
                           (   1   4   0   0   0   0   0)


     celldm(1)=   10.18990  celldm(2)=    0.00000  celldm(3)=    0.00000
     celldm(4)=    0.00000  celldm(5)=    0.00000  celldm(6)=    0.00000

     crystal axes: (cart. coord. in units of alat)
               a(1) = ( -0.5000  0.0000  0.5000 )  
               a(2) = (  0.0000  0.5000  0.5000 )  
               a(3) = ( -0.5000  0.5000  0.0000 )  

     reciprocal axes: (cart. coord. in units 2 pi/alat)
               b(1) = ( -1.0000 -1.0000  1.0000 )  
               b(2) = (  1.0000  1.0000  1.0000 )  
               b(3) = ( -1.0000  1.0000 -1.0000 )  


     Atoms inside the unit cell: 

     Cartesian axes

     site n.  atom      mass           positions (alat units)
        1     Si  28.0855   tau(    1) = (    0.00000    0.00000    0.00000  )
        2     Si  28.0855   tau(    2) = (   -0.25000    0.25000    0.25000  )

     Computing dynamical matrix for 
                    q = (  -0.1666667   0.1666667  -0.1666667 )
 
      6 Sym.Ops. (no q -> -q+G )


     G cutoff =  736.4420  (    652 G-vectors)     FFT grid: ( 40, 40, 40)
     number of k points=   364

     PseudoPot. # 1 for Si read from file:
     ./pseudos/Si.nc.UPF
     MD5 check sum: 9e2d726316af3d4752eea8ab0afbb951
     Pseudo is Norm-conserving + core correction, Zval =  4.0
     Generated using ONCVPSP code by D. R. Hamann
     Using radial grid of 1510 points,  6 beta functions with: 
                l(1) =   0
                l(2) =   0
                l(3) =   1
                l(4) =   1
                l(5) =   2
                l(6) =   2

     Mode symmetry, C_3v (3m)   point group:


     Atomic displacements:
     There are    4 irreducible representations

     Representation     1      1 modes -  To be done

     Representation     2      1 modes -  To be done

     Representation     3      2 modes -  To be done

     Representation     4      2 modes -  To be done



     Alpha used in Ewald sum =   2.8000
     PHONON       :     50.29s CPU   1m 6.43s WALL



     Representation #   1 mode #   1

     Self-consistent Calculation

      iter #   1 total cpu time :    69.4 secs   av.it.:   6.6
      thresh= 1.000E-02 alpha_mix =  0.700 |ddv_scf|^2 =  6.062E-04

      iter #   2 total cpu time :    73.3 secs   av.it.:   9.3
      thresh= 2.462E-03 alpha_mix =  0.700 |ddv_scf|^2 =  1.986E-02

      iter #   3 total cpu time :    76.5 secs   av.it.:   7.7
      thresh= 1.000E-02 alpha_mix =  0.700 |ddv_scf|^2 =  1.613E-07

      iter #   4 total cpu time :    80.4 secs   av.it.:   9.5
      thresh= 4.016E-05 alpha_mix =  0.700 |ddv_scf|^2 =  5.292E-09

      iter #   5 total cpu time :    84.4 secs   av.it.:  10.0
      thresh= 7.275E-06 alpha_mix =  0.700 |ddv_scf|^2 =  1.511E-10

      iter #   6 total cpu time :    89.7 secs   av.it.:   9.5
      thresh= 1.229E-06 alpha_mix =  0.700 |ddv_scf|^2 =  7.283E-11

      iter #   7 total cpu time :    96.3 secs   av.it.:   8.3
      thresh= 8.534E-07 alpha_mix =  0.700 |ddv_scf|^2 =  6.689E-11

      iter #   8 total cpu time :   100.2 secs   av.it.:   8.4
      thresh= 8.179E-07 alpha_mix =  0.700 |ddv_scf|^2 =  2.849E-13

      iter #   9 total cpu time :   104.8 secs   av.it.:   8.8
      thresh= 5.337E-08 alpha_mix =  0.700 |ddv_scf|^2 =  6.130E-15

      iter #  10 total cpu time :   109.9 secs   av.it.:   9.1
      thresh= 7.830E-09 alpha_mix =  0.700 |ddv_scf|^2 =  7.492E-16

     End of self-consistent calculation

     Convergence has been achieved 


     Representation #   2 mode #   2

     Self-consistent Calculation

      iter #   1 total cpu time :   114.7 secs   av.it.:   6.6
      thresh= 1.000E-02 alpha_mix =  0.700 |ddv_scf|^2 =  6.062E-04

      iter #   2 total cpu time :   119.2 secs   av.it.:   9.3
      thresh= 2.462E-03 alpha_mix =  0.700 |ddv_scf|^2 =  1.986E-02

      iter #   3 total cpu time :   123.4 secs   av.it.:   7.7
      thresh= 1.000E-02 alpha_mix =  0.700 |ddv_scf|^2 =  1.613E-07

      iter #   4 total cpu time :   128.0 secs   av.it.:   9.5
      thresh= 4.016E-05 alpha_mix =  0.700 |ddv_scf|^2 =  5.292E-09

      iter #   5 total cpu time :   133.7 secs   av.it.:  10.0
      thresh= 7.275E-06 alpha_mix =  0.700 |ddv_scf|^2 =  1.511E-10

      iter #   6 total cpu time :   137.6 secs   av.it.:   9.5
      thresh= 1.229E-06 alpha_mix =  0.700 |ddv_scf|^2 =  7.283E-11

      iter #   7 total cpu time :   141.6 secs   av.it.:   8.3
      thresh= 8.534E-07 alpha_mix =  0.700 |ddv_scf|^2 =  6.690E-11

      iter #   8 total cpu time :   146.9 secs   av.it.:   8.4
      thresh= 8.179E-07 alpha_mix =  0.700 |ddv_scf|^2 =  2.849E-13

      iter #   9 total cpu time :   151.0 secs   av.it.:   8.8
      thresh= 5.337E-08 alpha_mix =  0.700 |ddv_scf|^2 =  6.130E-15

      iter #  10 total cpu time :   155.0 secs   av.it.:   9.1
      thresh= 7.830E-09 alpha_mix =  0.700 |ddv_scf|^2 =  7.492E-16

     End of self-consistent calculation

     Convergence has been achieved 


     Representation #   3 modes #   3   4

     Self-consistent Calculation

      iter #   1 total cpu time :   168.9 secs   av.it.:   6.1
      thresh= 1.000E-02 alpha_mix =  0.700 |ddv_scf|^2 =  1.581E-08

      iter #   2 total cpu time :   178.1 secs   av.it.:  11.9
      thresh= 1.257E-05 alpha_mix =  0.700 |ddv_scf|^2 =  7.037E-10

      iter #   3 total cpu time :   188.3 secs   av.it.:  11.7
      thresh= 2.653E-06 alpha_mix =  0.700 |ddv_scf|^2 =  1.837E-11

      iter #   4 total cpu time :   199.4 secs   av.it.:  11.8
      thresh= 4.287E-07 alpha_mix =  0.700 |ddv_scf|^2 =  2.120E-13

      iter #   5 total cpu time :   209.2 secs   av.it.:  11.8
      thresh= 4.604E-08 alpha_mix =  0.700 |ddv_scf|^2 =  4.499E-15

      iter #   6 total cpu time :   219.7 secs   av.it.:  12.1
      thresh= 6.708E-09 alpha_mix =  0.700 |ddv_scf|^2 =  2.043E-17

     End of self-consistent calculation

     Convergence has been achieved 


     Representation #   4 modes #   5   6

     Self-consistent Calculation

      iter #   1 total cpu time :   225.8 secs   av.it.:   6.0
      thresh= 1.000E-02 alpha_mix =  0.700 |ddv_scf|^2 =  1.581E-08

      iter #   2 total cpu time :   234.9 secs   av.it.:  11.9
      thresh= 1.258E-05 alpha_mix =  0.700 |ddv_scf|^2 =  7.040E-10

      iter #   3 total cpu time :   244.4 secs   av.it.:  11.7
      thresh= 2.653E-06 alpha_mix =  0.700 |ddv_scf|^2 =  1.837E-11

      iter #   4 total cpu time :   255.5 secs   av.it.:  11.8
      thresh= 4.287E-07 alpha_mix =  0.700 |ddv_scf|^2 =  2.121E-13

      iter #   5 total cpu time :   264.6 secs   av.it.:  11.8
      thresh= 4.605E-08 alpha_mix =  0.700 |ddv_scf|^2 =  4.504E-15

      iter #   6 total cpu time :   274.0 secs   av.it.:  12.1
      thresh= 6.712E-09 alpha_mix =  0.700 |ddv_scf|^2 =  2.042E-17

     End of self-consistent calculation

     Convergence has been achieved 
 
     Number of q in the star =    8
     List of q in the star:
          1  -0.166666667   0.166666667  -0.166666667
          2   0.166666667   0.166666667   0.166666667
          3  -0.166666667  -0.166666667  -0.166666667
          4   0.166666667  -0.166666667   0.166666667
          5   0.166666667  -0.166666667  -0.166666667
          6   0.166666667   0.166666667  -0.166666667
          7  -0.166666667  -0.166666667   0.166666667
          8  -0.166666667   0.166666667   0.166666667

     Diagonalizing the dynamical matrix

     q = (   -0.166666667   0.166666667  -0.166666667 ) 

 **************************************************************************
     freq (    1) =       2.202633 [THz] =      73.471919 [cm-1]
     freq (    2) =       2.202633 [THz] =      73.471919 [cm-1]
     freq (    3) =       4.748440 [THz] =     158.390923 [cm-1]
     freq (    4) =      15.023972 [THz] =     501.145754 [cm-1]
     freq (    5) =      15.065870 [THz] =     502.543342 [cm-1]
     freq (    6) =      15.065870 [THz] =     502.543342 [cm-1]
 **************************************************************************

     Mode symmetry, C_3v (3m)   point group:

     freq (   1-   2) =         73.5  [cm-1]   --> E    L_3           
     freq (   3-   3) =        158.4  [cm-1]   --> A_1  L_1           
     freq (   4-   4) =        501.1  [cm-1]   --> A_1  L_1           
     freq (   5-   6) =        502.5  [cm-1]   --> E    L_3           

     Calculation of q =   -0.3333333   0.3333333  -0.3333333
 
     Parallelization info
     --------------------
     sticks:   dense  smooth     PW     G-vecs:    dense   smooth      PW
     Min          31      31      9                  651      651     116
     Max          32      32     10                  654      654     122
     Sum        1003    1003    313                20875    20875    3839
 
     Using Slab Decomposition
 

     Title: 
     default                                                                    


     bravais-lattice index     =            2
     lattice parameter (alat)  =      10.1899  a.u.
     unit-cell volume          =     264.5151 (a.u.)^3
     number of atoms/cell      =            2
     number of atomic types    =            1
     number of electrons       =         8.00
     number of Kohn-Sham states=            4
     kinetic-energy cutoff     =      70.0000  Ry
     charge density cutoff     =     280.0000  Ry
     Exchange-correlation= PW
                           (   1   4   0   0   0   0   0)

     celldm(1)=  10.189905  celldm(2)=   0.000000  celldm(3)=   0.000000
     celldm(4)=   0.000000  celldm(5)=   0.000000  celldm(6)=   0.000000

     crystal axes: (cart. coord. in units of alat)
               a(1) = (  -0.500000   0.000000   0.500000 )  
               a(2) = (   0.000000   0.500000   0.500000 )  
               a(3) = (  -0.500000   0.500000   0.000000 )  

     reciprocal axes: (cart. coord. in units 2 pi/alat)
               b(1) = ( -1.000000 -1.000000  1.000000 )  
               b(2) = (  1.000000  1.000000  1.000000 )  
               b(3) = ( -1.000000  1.000000 -1.000000 )  


     PseudoPot. # 1 for Si read from file:
     ./pseudos/Si.nc.UPF
     MD5 check sum: 9e2d726316af3d4752eea8ab0afbb951
     Pseudo is Norm-conserving + core correction, Zval =  4.0
     Generated using ONCVPSP code by D. R. Hamann
     Using radial grid of 1510 points,  6 beta functions with: 
                l(1) =   0
                l(2) =   0
                l(3) =   1
                l(4) =   1
                l(5) =   2
                l(6) =   2

     atomic species   valence    mass     pseudopotential
        Si             4.00    28.08550     Si( 1.00)

     48 Sym. Ops., with inversion, found



   Cartesian axes

     site n.     atom                  positions (alat units)
         1           Si  tau(   1) = (   0.0000000   0.0000000   0.0000000  )
         2           Si  tau(   2) = (  -0.2500000   0.2500000   0.2500000  )

     number of k points=   364

     Number of k-points >= 100: set verbosity='high' to print them.

     Dense  grid:    20875 G-vectors     FFT dimensions: (  40,  40,  40)

     Estimated max dynamical RAM per process >       1.76 MB

     Estimated total dynamical RAM >      56.46 MB

     The potential is recalculated from file :
     /fastscratch/tsievers/QE_TMP_DIR/_ph0/silicon_ph_bench_nd_4_n_procs_32_4.save/charge-density

     Starting wfcs are    8 atomic wfcs

     Band Structure Calculation
     Davidson diagonalization with overlap

     ethr =  1.25E-10,  avg # of iterations = 12.9

     total cpu time spent up to now is       29.0 secs

     End of band structure calculation

     Number of k-points >= 100: set verbosity='high' to print the bands.

     highest occupied level (ev):     6.1106

     Writing config to output data dir /fastscratch/tsievers/QE_TMP_DIR/_ph0/silicon_ph_bench_nd_4_n_procs_32_4.save/

     default                                                                    

     bravais-lattice index     =            2
     lattice parameter (alat)  =      10.1899  a.u.
     unit-cell volume          =     264.5151 (a.u.)^3
     number of atoms/cell      =            2
     number of atomic types    =            1
     kinetic-energy cut-off    =      70.0000  Ry
     charge density cut-off    =     280.0000  Ry
     convergence threshold     =      1.0E-15
     beta                      =       0.7000
     number of iterations used =            4
     Exchange-correlation= PW
                           (   1   4   0   0   0   0   0)


     celldm(1)=   10.18990  celldm(2)=    0.00000  celldm(3)=    0.00000
     celldm(4)=    0.00000  celldm(5)=    0.00000  celldm(6)=    0.00000

     crystal axes: (cart. coord. in units of alat)
               a(1) = ( -0.5000  0.0000  0.5000 )  
               a(2) = (  0.0000  0.5000  0.5000 )  
               a(3) = ( -0.5000  0.5000  0.0000 )  

     reciprocal axes: (cart. coord. in units 2 pi/alat)
               b(1) = ( -1.0000 -1.0000  1.0000 )  
               b(2) = (  1.0000  1.0000  1.0000 )  
               b(3) = ( -1.0000  1.0000 -1.0000 )  


     Atoms inside the unit cell: 

     Cartesian axes

     site n.  atom      mass           positions (alat units)
        1     Si  28.0855   tau(    1) = (    0.00000    0.00000    0.00000  )
        2     Si  28.0855   tau(    2) = (   -0.25000    0.25000    0.25000  )

     Computing dynamical matrix for 
                    q = (  -0.3333333   0.3333333  -0.3333333 )
 
      6 Sym.Ops. (no q -> -q+G )


     G cutoff =  736.4420  (    652 G-vectors)     FFT grid: ( 40, 40, 40)
     number of k points=   364

     PseudoPot. # 1 for Si read from file:
     ./pseudos/Si.nc.UPF
     MD5 check sum: 9e2d726316af3d4752eea8ab0afbb951
     Pseudo is Norm-conserving + core correction, Zval =  4.0
     Generated using ONCVPSP code by D. R. Hamann
     Using radial grid of 1510 points,  6 beta functions with: 
                l(1) =   0
                l(2) =   0
                l(3) =   1
                l(4) =   1
                l(5) =   2
                l(6) =   2

     Mode symmetry, C_3v (3m)   point group:


     Atomic displacements:
     There are    4 irreducible representations

     Representation     1      1 modes -  To be done

     Representation     2      1 modes -  To be done

     Representation     3      2 modes -  To be done

     Representation     4      2 modes -  To be done



     Alpha used in Ewald sum =   2.8000
     PHONON       :   4m 2.07s CPU   4m48.69s WALL



     Representation #   1 mode #   1

     Self-consistent Calculation

      iter #   1 total cpu time :   291.7 secs   av.it.:   6.5
      thresh= 1.000E-02 alpha_mix =  0.700 |ddv_scf|^2 =  3.838E-05

      iter #   2 total cpu time :   295.7 secs   av.it.:  10.1
      thresh= 6.195E-04 alpha_mix =  0.700 |ddv_scf|^2 =  3.063E-04

      iter #   3 total cpu time :   300.0 secs   av.it.:   8.7
      thresh= 1.750E-03 alpha_mix =  0.700 |ddv_scf|^2 =  5.643E-08

      iter #   4 total cpu time :   307.2 secs   av.it.:  10.3
      thresh= 2.375E-05 alpha_mix =  0.700 |ddv_scf|^2 =  1.148E-09

      iter #   5 total cpu time :   312.9 secs   av.it.:  10.3
      thresh= 3.389E-06 alpha_mix =  0.700 |ddv_scf|^2 =  1.213E-11

      iter #   6 total cpu time :   317.5 secs   av.it.:  10.8
      thresh= 3.483E-07 alpha_mix =  0.700 |ddv_scf|^2 =  1.307E-12

      iter #   7 total cpu time :   322.3 secs   av.it.:  10.7
      thresh= 1.143E-07 alpha_mix =  0.700 |ddv_scf|^2 =  1.202E-12

      iter #   8 total cpu time :   331.2 secs   av.it.:   9.7
      thresh= 1.096E-07 alpha_mix =  0.700 |ddv_scf|^2 =  9.790E-13

      iter #   9 total cpu time :   335.9 secs   av.it.:   9.5
      thresh= 9.894E-08 alpha_mix =  0.700 |ddv_scf|^2 =  1.358E-13

      iter #  10 total cpu time :   339.7 secs   av.it.:   9.4
      thresh= 3.685E-08 alpha_mix =  0.700 |ddv_scf|^2 =  9.838E-16

     End of self-consistent calculation

     Convergence has been achieved 


     Representation #   2 mode #   2

     Self-consistent Calculation

      iter #   1 total cpu time :   342.8 secs   av.it.:   6.5
      thresh= 1.000E-02 alpha_mix =  0.700 |ddv_scf|^2 =  3.838E-05

      iter #   2 total cpu time :   347.5 secs   av.it.:  10.1
      thresh= 6.195E-04 alpha_mix =  0.700 |ddv_scf|^2 =  3.063E-04

      iter #   3 total cpu time :   351.6 secs   av.it.:   8.7
      thresh= 1.750E-03 alpha_mix =  0.700 |ddv_scf|^2 =  5.643E-08

      iter #   4 total cpu time :   355.9 secs   av.it.:  10.3
      thresh= 2.375E-05 alpha_mix =  0.700 |ddv_scf|^2 =  1.148E-09

      iter #   5 total cpu time :   360.0 secs   av.it.:  10.3
      thresh= 3.389E-06 alpha_mix =  0.700 |ddv_scf|^2 =  1.213E-11

      iter #   6 total cpu time :   365.7 secs   av.it.:  10.8
      thresh= 3.483E-07 alpha_mix =  0.700 |ddv_scf|^2 =  1.307E-12

      iter #   7 total cpu time :   371.1 secs   av.it.:  10.7
      thresh= 1.143E-07 alpha_mix =  0.700 |ddv_scf|^2 =  1.202E-12

      iter #   8 total cpu time :   375.5 secs   av.it.:   9.7
      thresh= 1.096E-07 alpha_mix =  0.700 |ddv_scf|^2 =  9.789E-13

      iter #   9 total cpu time :   379.9 secs   av.it.:   9.5
      thresh= 9.894E-08 alpha_mix =  0.700 |ddv_scf|^2 =  1.358E-13

      iter #  10 total cpu time :   383.9 secs   av.it.:   9.4
      thresh= 3.685E-08 alpha_mix =  0.700 |ddv_scf|^2 =  9.836E-16

     End of self-consistent calculation

     Convergence has been achieved 


     Representation #   3 modes #   3   4

     Self-consistent Calculation

      iter #   1 total cpu time :   394.5 secs   av.it.:   6.1
      thresh= 1.000E-02 alpha_mix =  0.700 |ddv_scf|^2 =  2.154E-08

      iter #   2 total cpu time :   405.2 secs   av.it.:  11.9
      thresh= 1.468E-05 alpha_mix =  0.700 |ddv_scf|^2 =  1.492E-09

      iter #   3 total cpu time :   416.6 secs   av.it.:  11.6
      thresh= 3.862E-06 alpha_mix =  0.700 |ddv_scf|^2 =  2.160E-11

      iter #   4 total cpu time :   427.2 secs   av.it.:  11.8
      thresh= 4.648E-07 alpha_mix =  0.700 |ddv_scf|^2 =  2.167E-13

      iter #   5 total cpu time :   436.6 secs   av.it.:  11.8
      thresh= 4.655E-08 alpha_mix =  0.700 |ddv_scf|^2 =  4.218E-15

      iter #   6 total cpu time :   446.1 secs   av.it.:  12.1
      thresh= 6.494E-09 alpha_mix =  0.700 |ddv_scf|^2 =  2.871E-17

     End of self-consistent calculation

     Convergence has been achieved 


     Representation #   4 modes #   5   6

     Self-consistent Calculation

      iter #   1 total cpu time :   451.8 secs   av.it.:   6.0
      thresh= 1.000E-02 alpha_mix =  0.700 |ddv_scf|^2 =  2.154E-08

      iter #   2 total cpu time :   462.6 secs   av.it.:  11.8
      thresh= 1.468E-05 alpha_mix =  0.700 |ddv_scf|^2 =  1.493E-09

      iter #   3 total cpu time :   474.4 secs   av.it.:  11.6
      thresh= 3.864E-06 alpha_mix =  0.700 |ddv_scf|^2 =  2.159E-11

      iter #   4 total cpu time :   483.5 secs   av.it.:  11.8
      thresh= 4.647E-07 alpha_mix =  0.700 |ddv_scf|^2 =  2.167E-13

      iter #   5 total cpu time :   492.7 secs   av.it.:  11.8
      thresh= 4.655E-08 alpha_mix =  0.700 |ddv_scf|^2 =  4.215E-15

      iter #   6 total cpu time :   503.0 secs   av.it.:  12.1
      thresh= 6.492E-09 alpha_mix =  0.700 |ddv_scf|^2 =  2.870E-17

     End of self-consistent calculation

     Convergence has been achieved 
 
     Number of q in the star =    8
     List of q in the star:
          1  -0.333333333   0.333333333  -0.333333333
          2   0.333333333   0.333333333   0.333333333
          3  -0.333333333  -0.333333333  -0.333333333
          4   0.333333333  -0.333333333   0.333333333
          5   0.333333333  -0.333333333  -0.333333333
          6   0.333333333   0.333333333  -0.333333333
          7  -0.333333333  -0.333333333   0.333333333
          8  -0.333333333   0.333333333   0.333333333

     Diagonalizing the dynamical matrix

     q = (   -0.333333333   0.333333333  -0.333333333 ) 

 **************************************************************************
     freq (    1) =       3.044019 [THz] =     101.537529 [cm-1]
     freq (    2) =       3.044019 [THz] =     101.537529 [cm-1]
     freq (    3) =       8.748596 [THz] =     291.821751 [cm-1]
     freq (    4) =      13.858095 [THz] =     462.256290 [cm-1]
     freq (    5) =      14.763280 [THz] =     492.450006 [cm-1]
     freq (    6) =      14.763280 [THz] =     492.450006 [cm-1]
 **************************************************************************

     Mode symmetry, C_3v (3m)   point group:

     freq (   1-   2) =        101.5  [cm-1]   --> E    L_3           
     freq (   3-   3) =        291.8  [cm-1]   --> A_1  L_1           
     freq (   4-   4) =        462.3  [cm-1]   --> A_1  L_1           
     freq (   5-   6) =        492.5  [cm-1]   --> E    L_3           

     Calculation of q =    0.5000000  -0.5000000   0.5000000
 
     Parallelization info
     --------------------
     sticks:   dense  smooth     PW     G-vecs:    dense   smooth      PW
     Min          31      31     10                  651      651     124
     Max          32      32     12                  654      654     126
     Sum        1003    1003    337                20875    20875    4015
 
     Using Slab Decomposition
 

     Title: 
     default                                                                    


     bravais-lattice index     =            2
     lattice parameter (alat)  =      10.1899  a.u.
     unit-cell volume          =     264.5151 (a.u.)^3
     number of atoms/cell      =            2
     number of atomic types    =            1
     number of electrons       =         8.00
     number of Kohn-Sham states=            4
     kinetic-energy cutoff     =      70.0000  Ry
     charge density cutoff     =     280.0000  Ry
     Exchange-correlation= PW
                           (   1   4   0   0   0   0   0)

     celldm(1)=  10.189905  celldm(2)=   0.000000  celldm(3)=   0.000000
     celldm(4)=   0.000000  celldm(5)=   0.000000  celldm(6)=   0.000000

     crystal axes: (cart. coord. in units of alat)
               a(1) = (  -0.500000   0.000000   0.500000 )  
               a(2) = (   0.000000   0.500000   0.500000 )  
               a(3) = (  -0.500000   0.500000   0.000000 )  

     reciprocal axes: (cart. coord. in units 2 pi/alat)
               b(1) = ( -1.000000 -1.000000  1.000000 )  
               b(2) = (  1.000000  1.000000  1.000000 )  
               b(3) = ( -1.000000  1.000000 -1.000000 )  


     PseudoPot. # 1 for Si read from file:
     ./pseudos/Si.nc.UPF
     MD5 check sum: 9e2d726316af3d4752eea8ab0afbb951
     Pseudo is Norm-conserving + core correction, Zval =  4.0
     Generated using ONCVPSP code by D. R. Hamann
     Using radial grid of 1510 points,  6 beta functions with: 
                l(1) =   0
                l(2) =   0
                l(3) =   1
                l(4) =   1
                l(5) =   2
                l(6) =   2

     atomic species   valence    mass     pseudopotential
        Si             4.00    28.08550     Si( 1.00)

     48 Sym. Ops., with inversion, found



   Cartesian axes

     site n.     atom                  positions (alat units)
         1           Si  tau(   1) = (   0.0000000   0.0000000   0.0000000  )
         2           Si  tau(   2) = (  -0.2500000   0.2500000   0.2500000  )

     number of k points=   182

     Number of k-points >= 100: set verbosity='high' to print them.

     Dense  grid:    20875 G-vectors     FFT dimensions: (  40,  40,  40)

     Estimated max dynamical RAM per process >       1.78 MB

     Estimated total dynamical RAM >      56.92 MB

     The potential is recalculated from file :
     /fastscratch/tsievers/QE_TMP_DIR/_ph0/silicon_ph_bench_nd_4_n_procs_32_4.save/charge-density

     Starting wfcs are    8 atomic wfcs

     Band Structure Calculation
     Davidson diagonalization with overlap

     ethr =  1.25E-10,  avg # of iterations = 12.9

     total cpu time spent up to now is       36.1 secs

     End of band structure calculation

     Number of k-points >= 100: set verbosity='high' to print the bands.

     highest occupied level (ev):     6.1106

     Writing config to output data dir /fastscratch/tsievers/QE_TMP_DIR/_ph0/silicon_ph_bench_nd_4_n_procs_32_4.save/

     default                                                                    

     bravais-lattice index     =            2
     lattice parameter (alat)  =      10.1899  a.u.
     unit-cell volume          =     264.5151 (a.u.)^3
     number of atoms/cell      =            2
     number of atomic types    =            1
     kinetic-energy cut-off    =      70.0000  Ry
     charge density cut-off    =     280.0000  Ry
     convergence threshold     =      1.0E-15
     beta                      =       0.7000
     number of iterations used =            4
     Exchange-correlation= PW
                           (   1   4   0   0   0   0   0)


     celldm(1)=   10.18990  celldm(2)=    0.00000  celldm(3)=    0.00000
     celldm(4)=    0.00000  celldm(5)=    0.00000  celldm(6)=    0.00000

     crystal axes: (cart. coord. in units of alat)
               a(1) = ( -0.5000  0.0000  0.5000 )  
               a(2) = (  0.0000  0.5000  0.5000 )  
               a(3) = ( -0.5000  0.5000  0.0000 )  

     reciprocal axes: (cart. coord. in units 2 pi/alat)
               b(1) = ( -1.0000 -1.0000  1.0000 )  
               b(2) = (  1.0000  1.0000  1.0000 )  
               b(3) = ( -1.0000  1.0000 -1.0000 )  


     Atoms inside the unit cell: 

     Cartesian axes

     site n.  atom      mass           positions (alat units)
        1     Si  28.0855   tau(    1) = (    0.00000    0.00000    0.00000  )
        2     Si  28.0855   tau(    2) = (   -0.25000    0.25000    0.25000  )

     Computing dynamical matrix for 
                    q = (   0.5000000  -0.5000000   0.5000000 )
 
     13 Sym.Ops. (with q -> -q+G )


     G cutoff =  736.4420  (    652 G-vectors)     FFT grid: ( 40, 40, 40)
     number of k points=   182

     PseudoPot. # 1 for Si read from file:
     ./pseudos/Si.nc.UPF
     MD5 check sum: 9e2d726316af3d4752eea8ab0afbb951
     Pseudo is Norm-conserving + core correction, Zval =  4.0
     Generated using ONCVPSP code by D. R. Hamann
     Using radial grid of 1510 points,  6 beta functions with: 
                l(1) =   0
                l(2) =   0
                l(3) =   1
                l(4) =   1
                l(5) =   2
                l(6) =   2


     Atomic displacements:
     There are    4 irreducible representations

     Representation     1      1 modes -  To be done

     Representation     2      1 modes -  To be done

     Representation     3      2 modes -  To be done

     Representation     4      2 modes -  To be done



     Alpha used in Ewald sum =   2.8000
     PHONON       :   7m17.85s CPU   8m30.79s WALL



     Representation #   1 mode #   1

     Self-consistent Calculation

      iter #   1 total cpu time :   512.2 secs   av.it.:   5.8
      thresh= 1.000E-02 alpha_mix =  0.700 |ddv_scf|^2 =  1.228E-06

      iter #   2 total cpu time :   514.4 secs   av.it.:  10.4
      thresh= 1.108E-04 alpha_mix =  0.700 |ddv_scf|^2 =  1.133E-06

      iter #   3 total cpu time :   517.4 secs   av.it.:   9.7
      thresh= 1.064E-04 alpha_mix =  0.700 |ddv_scf|^2 =  1.516E-10

      iter #   4 total cpu time :   520.1 secs   av.it.:  10.5
      thresh= 1.231E-06 alpha_mix =  0.700 |ddv_scf|^2 =  2.613E-12

      iter #   5 total cpu time :   523.2 secs   av.it.:  10.3
      thresh= 1.617E-07 alpha_mix =  0.700 |ddv_scf|^2 =  3.724E-14

      iter #   6 total cpu time :   526.0 secs   av.it.:  10.3
      thresh= 1.930E-08 alpha_mix =  0.700 |ddv_scf|^2 =  4.867E-16

     End of self-consistent calculation

     Convergence has been achieved 


     Representation #   2 mode #   2

     Self-consistent Calculation

      iter #   1 total cpu time :   527.6 secs   av.it.:   6.7
      thresh= 1.000E-02 alpha_mix =  0.700 |ddv_scf|^2 =  1.876E-05

      iter #   2 total cpu time :   530.4 secs   av.it.:  10.5
      thresh= 4.331E-04 alpha_mix =  0.700 |ddv_scf|^2 =  6.129E-05

      iter #   3 total cpu time :   532.9 secs   av.it.:   9.5
      thresh= 7.829E-04 alpha_mix =  0.700 |ddv_scf|^2 =  3.620E-09

      iter #   4 total cpu time :   535.0 secs   av.it.:  10.2
      thresh= 6.016E-06 alpha_mix =  0.700 |ddv_scf|^2 =  7.602E-11

      iter #   5 total cpu time :   537.4 secs   av.it.:  10.7
      thresh= 8.719E-07 alpha_mix =  0.700 |ddv_scf|^2 =  3.805E-12

      iter #   6 total cpu time :   539.5 secs   av.it.:  10.4
      thresh= 1.951E-07 alpha_mix =  0.700 |ddv_scf|^2 =  1.077E-13

      iter #   7 total cpu time :   541.6 secs   av.it.:   9.9
      thresh= 3.281E-08 alpha_mix =  0.700 |ddv_scf|^2 =  1.797E-17

     End of self-consistent calculation

     Convergence has been achieved 


     Representation #   3 modes #   3   4

     Self-consistent Calculation

      iter #   1 total cpu time :   544.7 secs   av.it.:   6.1
      thresh= 1.000E-02 alpha_mix =  0.700 |ddv_scf|^2 =  4.335E-08

      iter #   2 total cpu time :   549.8 secs   av.it.:  11.7
      thresh= 2.082E-05 alpha_mix =  0.700 |ddv_scf|^2 =  3.675E-09

      iter #   3 total cpu time :   556.3 secs   av.it.:  11.5
      thresh= 6.062E-06 alpha_mix =  0.700 |ddv_scf|^2 =  2.461E-11

      iter #   4 total cpu time :   561.1 secs   av.it.:  11.5
      thresh= 4.960E-07 alpha_mix =  0.700 |ddv_scf|^2 =  2.752E-14

      iter #   5 total cpu time :   565.8 secs   av.it.:  12.0
      thresh= 1.659E-08 alpha_mix =  0.700 |ddv_scf|^2 =  3.617E-16

     End of self-consistent calculation

     Convergence has been achieved 


     Representation #   4 modes #   5   6

     Self-consistent Calculation

      iter #   1 total cpu time :   568.7 secs   av.it.:   5.5
      thresh= 1.000E-02 alpha_mix =  0.700 |ddv_scf|^2 =  4.920E-09

      iter #   2 total cpu time :   573.3 secs   av.it.:  11.6
      thresh= 7.014E-06 alpha_mix =  0.700 |ddv_scf|^2 =  1.290E-10

      iter #   3 total cpu time :   579.7 secs   av.it.:  11.6
      thresh= 1.136E-06 alpha_mix =  0.700 |ddv_scf|^2 =  7.930E-12

      iter #   4 total cpu time :   585.5 secs   av.it.:  11.6
      thresh= 2.816E-07 alpha_mix =  0.700 |ddv_scf|^2 =  3.391E-14

      iter #   5 total cpu time :   590.5 secs   av.it.:  11.7
      thresh= 1.842E-08 alpha_mix =  0.700 |ddv_scf|^2 =  5.422E-16

     End of self-consistent calculation

     Convergence has been achieved 
 
     Number of q in the star =    4
     List of q in the star:
          1   0.500000000  -0.500000000   0.500000000
          2   0.500000000   0.500000000   0.500000000
          3  -0.500000000   0.500000000   0.500000000
          4   0.500000000   0.500000000  -0.500000000

     Diagonalizing the dynamical matrix

     q = (    0.500000000  -0.500000000   0.500000000 ) 

 **************************************************************************
     freq (    1) =       3.157105 [THz] =     105.309702 [cm-1]
     freq (    2) =       3.157105 [THz] =     105.309702 [cm-1]
     freq (    3) =      11.169063 [THz] =     372.559831 [cm-1]
     freq (    4) =      12.390604 [THz] =     413.306050 [cm-1]
     freq (    5) =      14.704241 [THz] =     490.480694 [cm-1]
     freq (    6) =      14.704241 [THz] =     490.480694 [cm-1]
 **************************************************************************

     Calculation of q =    0.0000000   0.3333333   0.0000000
 
     Parallelization info
     --------------------
     sticks:   dense  smooth     PW     G-vecs:    dense   smooth      PW
     Min          31      31      9                  651      651     113
     Max          32      32     10                  654      654     119
     Sum        1003    1003    313                20875    20875    3719
 
     Using Slab Decomposition
 

     Title: 
     default                                                                    


     bravais-lattice index     =            2
     lattice parameter (alat)  =      10.1899  a.u.
     unit-cell volume          =     264.5151 (a.u.)^3
     number of atoms/cell      =            2
     number of atomic types    =            1
     number of electrons       =         8.00
     number of Kohn-Sham states=            4
     kinetic-energy cutoff     =      70.0000  Ry
     charge density cutoff     =     280.0000  Ry
     Exchange-correlation= PW
                           (   1   4   0   0   0   0   0)

     celldm(1)=  10.189905  celldm(2)=   0.000000  celldm(3)=   0.000000
     celldm(4)=   0.000000  celldm(5)=   0.000000  celldm(6)=   0.000000

     crystal axes: (cart. coord. in units of alat)
               a(1) = (  -0.500000   0.000000   0.500000 )  
               a(2) = (   0.000000   0.500000   0.500000 )  
               a(3) = (  -0.500000   0.500000   0.000000 )  

     reciprocal axes: (cart. coord. in units 2 pi/alat)
               b(1) = ( -1.000000 -1.000000  1.000000 )  
               b(2) = (  1.000000  1.000000  1.000000 )  
               b(3) = ( -1.000000  1.000000 -1.000000 )  


     PseudoPot. # 1 for Si read from file:
     ./pseudos/Si.nc.UPF
     MD5 check sum: 9e2d726316af3d4752eea8ab0afbb951
     Pseudo is Norm-conserving + core correction, Zval =  4.0
     Generated using ONCVPSP code by D. R. Hamann
     Using radial grid of 1510 points,  6 beta functions with: 
                l(1) =   0
                l(2) =   0
                l(3) =   1
                l(4) =   1
                l(5) =   2
                l(6) =   2

     atomic species   valence    mass     pseudopotential
        Si             4.00    28.08550     Si( 1.00)

     48 Sym. Ops., with inversion, found



   Cartesian axes

     site n.     atom                  positions (alat units)
         1           Si  tau(   1) = (   0.0000000   0.0000000   0.0000000  )
         2           Si  tau(   2) = (  -0.2500000   0.2500000   0.2500000  )

     number of k points=   252

     Number of k-points >= 100: set verbosity='high' to print them.

     Dense  grid:    20875 G-vectors     FFT dimensions: (  40,  40,  40)

     Estimated max dynamical RAM per process >       1.75 MB

     Estimated total dynamical RAM >      56.08 MB

     The potential is recalculated from file :
     /fastscratch/tsievers/QE_TMP_DIR/_ph0/silicon_ph_bench_nd_4_n_procs_32_4.save/charge-density

     Starting wfcs are    8 atomic wfcs

     Band Structure Calculation
     Davidson diagonalization with overlap

     ethr =  1.25E-10,  avg # of iterations = 12.8

     total cpu time spent up to now is       45.4 secs

     End of band structure calculation

     Number of k-points >= 100: set verbosity='high' to print the bands.

     highest occupied level (ev):     6.1106

     Writing config to output data dir /fastscratch/tsievers/QE_TMP_DIR/_ph0/silicon_ph_bench_nd_4_n_procs_32_4.save/

     default                                                                    

     bravais-lattice index     =            2
     lattice parameter (alat)  =      10.1899  a.u.
     unit-cell volume          =     264.5151 (a.u.)^3
     number of atoms/cell      =            2
     number of atomic types    =            1
     kinetic-energy cut-off    =      70.0000  Ry
     charge density cut-off    =     280.0000  Ry
     convergence threshold     =      1.0E-15
     beta                      =       0.7000
     number of iterations used =            4
     Exchange-correlation= PW
                           (   1   4   0   0   0   0   0)


     celldm(1)=   10.18990  celldm(2)=    0.00000  celldm(3)=    0.00000
     celldm(4)=    0.00000  celldm(5)=    0.00000  celldm(6)=    0.00000

     crystal axes: (cart. coord. in units of alat)
               a(1) = ( -0.5000  0.0000  0.5000 )  
               a(2) = (  0.0000  0.5000  0.5000 )  
               a(3) = ( -0.5000  0.5000  0.0000 )  

     reciprocal axes: (cart. coord. in units 2 pi/alat)
               b(1) = ( -1.0000 -1.0000  1.0000 )  
               b(2) = (  1.0000  1.0000  1.0000 )  
               b(3) = ( -1.0000  1.0000 -1.0000 )  


     Atoms inside the unit cell: 

     Cartesian axes

     site n.  atom      mass           positions (alat units)
        1     Si  28.0855   tau(    1) = (    0.00000    0.00000    0.00000  )
        2     Si  28.0855   tau(    2) = (   -0.25000    0.25000    0.25000  )

     Computing dynamical matrix for 
                    q = (   0.0000000   0.3333333   0.0000000 )
 
      8 Sym.Ops. (no q -> -q+G )


     G cutoff =  736.4420  (    652 G-vectors)     FFT grid: ( 40, 40, 40)
     number of k points=   252

     PseudoPot. # 1 for Si read from file:
     ./pseudos/Si.nc.UPF
     MD5 check sum: 9e2d726316af3d4752eea8ab0afbb951
     Pseudo is Norm-conserving + core correction, Zval =  4.0
     Generated using ONCVPSP code by D. R. Hamann
     Using radial grid of 1510 points,  6 beta functions with: 
                l(1) =   0
                l(2) =   0
                l(3) =   1
                l(4) =   1
                l(5) =   2
                l(6) =   2

     Mode symmetry, C_4v (4mm)  point group:


     Atomic displacements:
     There are    4 irreducible representations

     Representation     1      1 modes -  To be done

     Representation     2      1 modes -  To be done

     Representation     3      2 modes -  To be done

     Representation     4      2 modes -  To be done



     Alpha used in Ewald sum =   2.8000
     PHONON       :   8m35.26s CPU  10m 1.90s WALL



     Representation #   1 mode #   1

     Self-consistent Calculation

      iter #   1 total cpu time :   604.0 secs   av.it.:   6.8
      thresh= 1.000E-02 alpha_mix =  0.700 |ddv_scf|^2 =  8.142E-04

      iter #   2 total cpu time :   606.7 secs   av.it.:   9.6
      thresh= 2.853E-03 alpha_mix =  0.700 |ddv_scf|^2 =  2.483E-02

      iter #   3 total cpu time :   610.2 secs   av.it.:   8.0
      thresh= 1.000E-02 alpha_mix =  0.700 |ddv_scf|^2 =  2.290E-08

      iter #   4 total cpu time :   613.1 secs   av.it.:   9.4
      thresh= 1.513E-05 alpha_mix =  0.700 |ddv_scf|^2 =  1.095E-09

      iter #   5 total cpu time :   615.7 secs   av.it.:   9.1
      thresh= 3.310E-06 alpha_mix =  0.700 |ddv_scf|^2 =  3.550E-10

      iter #   6 total cpu time :   618.1 secs   av.it.:   8.7
      thresh= 1.884E-06 alpha_mix =  0.700 |ddv_scf|^2 =  4.866E-13

      iter #   7 total cpu time :   620.6 secs   av.it.:   8.8
      thresh= 6.976E-08 alpha_mix =  0.700 |ddv_scf|^2 =  1.078E-14

      iter #   8 total cpu time :   623.1 secs   av.it.:   8.8
      thresh= 1.038E-08 alpha_mix =  0.700 |ddv_scf|^2 =  1.354E-16

     End of self-consistent calculation

     Convergence has been achieved 


     Representation #   2 mode #   2

     Self-consistent Calculation

      iter #   1 total cpu time :   625.4 secs   av.it.:   5.9
      thresh= 1.000E-02 alpha_mix =  0.700 |ddv_scf|^2 =  1.243E-07

      iter #   2 total cpu time :   628.3 secs   av.it.:  10.8
      thresh= 3.525E-05 alpha_mix =  0.700 |ddv_scf|^2 =  2.010E-08

      iter #   3 total cpu time :   631.2 secs   av.it.:  10.6
      thresh= 1.418E-05 alpha_mix =  0.700 |ddv_scf|^2 =  2.542E-10

      iter #   4 total cpu time :   634.4 secs   av.it.:  10.7
      thresh= 1.594E-06 alpha_mix =  0.700 |ddv_scf|^2 =  1.056E-11

      iter #   5 total cpu time :   637.4 secs   av.it.:  10.7
      thresh= 3.249E-07 alpha_mix =  0.700 |ddv_scf|^2 =  2.406E-14

      iter #   6 total cpu time :   641.7 secs   av.it.:  11.0
      thresh= 1.551E-08 alpha_mix =  0.700 |ddv_scf|^2 =  4.804E-16

     End of self-consistent calculation

     Convergence has been achieved 


     Representation #   3 modes #   3   4

     Self-consistent Calculation

      iter #   1 total cpu time :   648.1 secs   av.it.:   6.1
      thresh= 1.000E-02 alpha_mix =  0.700 |ddv_scf|^2 =  2.250E-08

      iter #   2 total cpu time :   654.9 secs   av.it.:  11.8
      thresh= 1.500E-05 alpha_mix =  0.700 |ddv_scf|^2 =  2.051E-09

      iter #   3 total cpu time :   661.4 secs   av.it.:  11.6
      thresh= 4.529E-06 alpha_mix =  0.700 |ddv_scf|^2 =  2.390E-11

      iter #   4 total cpu time :   671.6 secs   av.it.:  11.7
      thresh= 4.889E-07 alpha_mix =  0.700 |ddv_scf|^2 =  2.687E-13

      iter #   5 total cpu time :   678.4 secs   av.it.:  11.7
      thresh= 5.184E-08 alpha_mix =  0.700 |ddv_scf|^2 =  4.460E-15

      iter #   6 total cpu time :   685.2 secs   av.it.:  12.1
      thresh= 6.679E-09 alpha_mix =  0.700 |ddv_scf|^2 =  1.816E-17

     End of self-consistent calculation

     Convergence has been achieved 


     Representation #   4 modes #   5   6

     Self-consistent Calculation

      iter #   1 total cpu time :   694.5 secs   av.it.:   6.0
      thresh= 1.000E-02 alpha_mix =  0.700 |ddv_scf|^2 =  2.966E-08

      iter #   2 total cpu time :   706.6 secs   av.it.:  11.7
      thresh= 1.722E-05 alpha_mix =  0.700 |ddv_scf|^2 =  2.797E-09

      iter #   3 total cpu time :   713.6 secs   av.it.:  11.5
      thresh= 5.288E-06 alpha_mix =  0.700 |ddv_scf|^2 =  2.530E-11

      iter #   4 total cpu time :   719.9 secs   av.it.:  11.7
      thresh= 5.030E-07 alpha_mix =  0.700 |ddv_scf|^2 =  1.719E-13

      iter #   5 total cpu time :   726.6 secs   av.it.:  11.6
      thresh= 4.147E-08 alpha_mix =  0.700 |ddv_scf|^2 =  4.083E-15

      iter #   6 total cpu time :   733.3 secs   av.it.:  12.1
      thresh= 6.390E-09 alpha_mix =  0.700 |ddv_scf|^2 =  1.729E-17

     End of self-consistent calculation

     Convergence has been achieved 
 
     Number of q in the star =    6
     List of q in the star:
          1   0.000000000   0.333333333   0.000000000
          2   0.333333333   0.000000000   0.000000000
          3   0.000000000   0.000000000   0.333333333
          4   0.000000000  -0.333333333   0.000000000
          5  -0.333333333   0.000000000   0.000000000
          6   0.000000000   0.000000000  -0.333333333

     Diagonalizing the dynamical matrix

     q = (    0.000000000   0.333333333   0.000000000 ) 

 **************************************************************************
     freq (    1) =       2.948362 [THz] =      98.346777 [cm-1]
     freq (    2) =       2.948362 [THz] =      98.346777 [cm-1]
     freq (    3) =       4.953278 [THz] =     165.223586 [cm-1]
     freq (    4) =      14.670258 [THz] =     489.347141 [cm-1]
     freq (    5) =      14.670258 [THz] =     489.347141 [cm-1]
     freq (    6) =      15.142871 [THz] =     505.111798 [cm-1]
 **************************************************************************

     Mode symmetry, C_4v (4mm)  point group:

     freq (   1-   2) =         98.3  [cm-1]   --> E    G_5 D_5       
     freq (   3-   3) =        165.2  [cm-1]   --> A_1  G_1 D_1       
     freq (   4-   5) =        489.3  [cm-1]   --> E    G_5 D_5       
     freq (   6-   6) =        505.1  [cm-1]   --> B_2  G_4 D_2'      

     Calculation of q =   -0.1666667   0.5000000  -0.1666667
 
     Parallelization info
     --------------------
     sticks:   dense  smooth     PW     G-vecs:    dense   smooth      PW
     Min          31      31      9                  651      651     116
     Max          32      32     10                  654      654     122
     Sum        1003    1003    313                20875    20875    3839
 
     Using Slab Decomposition
 

     Title: 
     default                                                                    


     bravais-lattice index     =            2
     lattice parameter (alat)  =      10.1899  a.u.
     unit-cell volume          =     264.5151 (a.u.)^3
     number of atoms/cell      =            2
     number of atomic types    =            1
     number of electrons       =         8.00
     number of Kohn-Sham states=            4
     kinetic-energy cutoff     =      70.0000  Ry
     charge density cutoff     =     280.0000  Ry
     Exchange-correlation= PW
                           (   1   4   0   0   0   0   0)

     celldm(1)=  10.189905  celldm(2)=   0.000000  celldm(3)=   0.000000
     celldm(4)=   0.000000  celldm(5)=   0.000000  celldm(6)=   0.000000

     crystal axes: (cart. coord. in units of alat)
               a(1) = (  -0.500000   0.000000   0.500000 )  
               a(2) = (   0.000000   0.500000   0.500000 )  
               a(3) = (  -0.500000   0.500000   0.000000 )  

     reciprocal axes: (cart. coord. in units 2 pi/alat)
               b(1) = ( -1.000000 -1.000000  1.000000 )  
               b(2) = (  1.000000  1.000000  1.000000 )  
               b(3) = ( -1.000000  1.000000 -1.000000 )  


     PseudoPot. # 1 for Si read from file:
     ./pseudos/Si.nc.UPF
     MD5 check sum: 9e2d726316af3d4752eea8ab0afbb951
     Pseudo is Norm-conserving + core correction, Zval =  4.0
     Generated using ONCVPSP code by D. R. Hamann
     Using radial grid of 1510 points,  6 beta functions with: 
                l(1) =   0
                l(2) =   0
                l(3) =   1
                l(4) =   1
                l(5) =   2
                l(6) =   2

     atomic species   valence    mass     pseudopotential
        Si             4.00    28.08550     Si( 1.00)

     48 Sym. Ops., with inversion, found



   Cartesian axes

     site n.     atom                  positions (alat units)
         1           Si  tau(   1) = (   0.0000000   0.0000000   0.0000000  )
         2           Si  tau(   2) = (  -0.2500000   0.2500000   0.2500000  )

     number of k points=   936

     Number of k-points >= 100: set verbosity='high' to print them.

     Dense  grid:    20875 G-vectors     FFT dimensions: (  40,  40,  40)

     Estimated max dynamical RAM per process >       1.76 MB

     Estimated total dynamical RAM >      56.43 MB

     The potential is recalculated from file :
     /fastscratch/tsievers/QE_TMP_DIR/_ph0/silicon_ph_bench_nd_4_n_procs_32_4.save/charge-density

     Starting wfcs are    8 atomic wfcs

     Band Structure Calculation
     Davidson diagonalization with overlap

     ethr =  1.25E-10,  avg # of iterations = 12.8

     total cpu time spent up to now is       81.8 secs

     End of band structure calculation

     Number of k-points >= 100: set verbosity='high' to print the bands.

     highest occupied level (ev):     6.1106

     Writing config to output data dir /fastscratch/tsievers/QE_TMP_DIR/_ph0/silicon_ph_bench_nd_4_n_procs_32_4.save/

     default                                                                    

     bravais-lattice index     =            2
     lattice parameter (alat)  =      10.1899  a.u.
     unit-cell volume          =     264.5151 (a.u.)^3
     number of atoms/cell      =            2
     number of atomic types    =            1
     kinetic-energy cut-off    =      70.0000  Ry
     charge density cut-off    =     280.0000  Ry
     convergence threshold     =      1.0E-15
     beta                      =       0.7000
     number of iterations used =            4
     Exchange-correlation= PW
                           (   1   4   0   0   0   0   0)


     celldm(1)=   10.18990  celldm(2)=    0.00000  celldm(3)=    0.00000
     celldm(4)=    0.00000  celldm(5)=    0.00000  celldm(6)=    0.00000

     crystal axes: (cart. coord. in units of alat)
               a(1) = ( -0.5000  0.0000  0.5000 )  
               a(2) = (  0.0000  0.5000  0.5000 )  
               a(3) = ( -0.5000  0.5000  0.0000 )  

     reciprocal axes: (cart. coord. in units 2 pi/alat)
               b(1) = ( -1.0000 -1.0000  1.0000 )  
               b(2) = (  1.0000  1.0000  1.0000 )  
               b(3) = ( -1.0000  1.0000 -1.0000 )  


     Atoms inside the unit cell: 

     Cartesian axes

     site n.  atom      mass           positions (alat units)
        1     Si  28.0855   tau(    1) = (    0.00000    0.00000    0.00000  )
        2     Si  28.0855   tau(    2) = (   -0.25000    0.25000    0.25000  )

     Computing dynamical matrix for 
                    q = (  -0.1666667   0.5000000  -0.1666667 )
 
      2 Sym.Ops. (no q -> -q+G )

[...]
      thresh= 1.000E-02 alpha_mix =  0.700 |ddv_scf|^2 =  2.102E-06

      iter #   2 total cpu time :  4862.1 secs   av.it.:  11.2
      thresh= 1.450E-04 alpha_mix =  0.700 |ddv_scf|^2 =  2.666E-06

      iter #   3 total cpu time :  4871.4 secs   av.it.:  10.4
      thresh= 1.633E-04 alpha_mix =  0.700 |ddv_scf|^2 =  3.051E-08

      iter #   4 total cpu time :  4881.2 secs   av.it.:  10.6
      thresh= 1.747E-05 alpha_mix =  0.700 |ddv_scf|^2 =  1.535E-10

      iter #   5 total cpu time :  4891.3 secs   av.it.:  10.9
      thresh= 1.239E-06 alpha_mix =  0.700 |ddv_scf|^2 =  3.891E-12

      iter #   6 total cpu time :  4901.2 secs   av.it.:  11.1
      thresh= 1.973E-07 alpha_mix =  0.700 |ddv_scf|^2 =  2.285E-14

      iter #   7 total cpu time :  4910.9 secs   av.it.:  10.9
      thresh= 1.512E-08 alpha_mix =  0.700 |ddv_scf|^2 =  2.515E-15

      iter #   8 total cpu time :  4920.9 secs   av.it.:  11.0
      thresh= 5.015E-09 alpha_mix =  0.700 |ddv_scf|^2 =  8.051E-17

     End of self-consistent calculation

     Convergence has been achieved 


     Representation #   6 mode #   6

     Self-consistent Calculation

      iter #   1 total cpu time :  4928.1 secs   av.it.:   6.3
      thresh= 1.000E-02 alpha_mix =  0.700 |ddv_scf|^2 =  9.880E-07

      iter #   2 total cpu time :  4937.9 secs   av.it.:  11.2
      thresh= 9.940E-05 alpha_mix =  0.700 |ddv_scf|^2 =  1.084E-06

      iter #   3 total cpu time :  4948.0 secs   av.it.:  10.3
      thresh= 1.041E-04 alpha_mix =  0.700 |ddv_scf|^2 =  2.652E-08

      iter #   4 total cpu time :  4957.6 secs   av.it.:  10.5
      thresh= 1.629E-05 alpha_mix =  0.700 |ddv_scf|^2 =  8.660E-11

      iter #   5 total cpu time :  4967.3 secs   av.it.:  10.9
      thresh= 9.306E-07 alpha_mix =  0.700 |ddv_scf|^2 =  1.630E-12

      iter #   6 total cpu time :  4977.4 secs   av.it.:  11.0
      thresh= 1.277E-07 alpha_mix =  0.700 |ddv_scf|^2 =  7.600E-15

      iter #   7 total cpu time :  4987.3 secs   av.it.:  11.0
      thresh= 8.718E-09 alpha_mix =  0.700 |ddv_scf|^2 =  4.350E-16

     End of self-consistent calculation

     Convergence has been achieved 
 
     Number of q in the star =   24
     List of q in the star:
          1   0.500000000  -0.166666667   0.833333333
          2   0.833333333   0.166666667   0.500000000
          3   0.500000000   0.166666667   0.833333333
          4  -0.833333333  -0.166666667   0.500000000
          5  -0.833333333  -0.166666667  -0.500000000
          6  -0.500000000  -0.166666667  -0.833333333
          7   0.833333333  -0.166666667   0.500000000
          8  -0.500000000  -0.166666667   0.833333333
          9  -0.833333333   0.166666667   0.500000000
         10   0.833333333   0.166666667  -0.500000000
         11   0.833333333  -0.166666667  -0.500000000
         12   0.500000000   0.166666667  -0.833333333
         13  -0.500000000   0.166666667   0.833333333
         14  -0.500000000   0.166666667  -0.833333333
         15  -0.833333333   0.166666667  -0.500000000
         16   0.833333333  -0.500000000   0.166666667
         17   0.833333333   0.500000000  -0.166666667
         18  -0.833333333  -0.500000000  -0.166666667
         19  -0.833333333   0.500000000   0.166666667
         20   0.166666667  -0.500000000   0.833333333
         21  -0.166666667   0.500000000   0.833333333
         22   0.166666667   0.500000000  -0.833333333
         23  -0.166666667  -0.500000000  -0.833333333
         24  -0.500000000   0.833333333   0.166666667

     Diagonalizing the dynamical matrix

     q = (    0.500000000  -0.166666667   0.833333333 ) 

 **************************************************************************
     freq (    1) =       5.051946 [THz] =     168.514773 [cm-1]
     freq (    2) =       6.066368 [THz] =     202.352248 [cm-1]
     freq (    3) =       9.812798 [THz] =     327.319720 [cm-1]
     freq (    4) =      11.453170 [THz] =     382.036617 [cm-1]
     freq (    5) =      14.042012 [THz] =     468.391109 [cm-1]
     freq (    6) =      14.270792 [THz] =     476.022386 [cm-1]
 **************************************************************************

     Calculation of q =   -0.3333333  -1.0000000   0.0000000
 
     Parallelization info
     --------------------
     sticks:   dense  smooth     PW     G-vecs:    dense   smooth      PW
     Min          31      31     10                  651      651     132
     Max          32      32     11                  654      654     135
     Sum        1003    1003    349                20875    20875    4279
 
     Using Slab Decomposition
 

     Title: 
     default                                                                    


     bravais-lattice index     =            2
     lattice parameter (alat)  =      10.1899  a.u.
     unit-cell volume          =     264.5151 (a.u.)^3
     number of atoms/cell      =            2
     number of atomic types    =            1
     number of electrons       =         8.00
     number of Kohn-Sham states=            4
     kinetic-energy cutoff     =      70.0000  Ry
     charge density cutoff     =     280.0000  Ry
     Exchange-correlation= PW
                           (   1   4   0   0   0   0   0)

     celldm(1)=  10.189905  celldm(2)=   0.000000  celldm(3)=   0.000000
     celldm(4)=   0.000000  celldm(5)=   0.000000  celldm(6)=   0.000000

     crystal axes: (cart. coord. in units of alat)
               a(1) = (  -0.500000   0.000000   0.500000 )  
               a(2) = (   0.000000   0.500000   0.500000 )  
               a(3) = (  -0.500000   0.500000   0.000000 )  

     reciprocal axes: (cart. coord. in units 2 pi/alat)
               b(1) = ( -1.000000 -1.000000  1.000000 )  
               b(2) = (  1.000000  1.000000  1.000000 )  
               b(3) = ( -1.000000  1.000000 -1.000000 )  


     PseudoPot. # 1 for Si read from file:
     ./pseudos/Si.nc.UPF
     MD5 check sum: 9e2d726316af3d4752eea8ab0afbb951
     Pseudo is Norm-conserving + core correction, Zval =  4.0
     Generated using ONCVPSP code by D. R. Hamann
     Using radial grid of 1510 points,  6 beta functions with: 
                l(1) =   0
                l(2) =   0
                l(3) =   1
                l(4) =   1
                l(5) =   2
                l(6) =   2

     atomic species   valence    mass     pseudopotential
        Si             4.00    28.08550     Si( 1.00)

     48 Sym. Ops., with inversion, found



   Cartesian axes

     site n.     atom                  positions (alat units)
         1           Si  tau(   1) = (   0.0000000   0.0000000   0.0000000  )
         2           Si  tau(   2) = (  -0.2500000   0.2500000   0.2500000  )

     number of k points=   432

     Number of k-points >= 100: set verbosity='high' to print them.

     Dense  grid:    20875 G-vectors     FFT dimensions: (  40,  40,  40)

     Estimated max dynamical RAM per process >       1.79 MB

     Estimated total dynamical RAM >      57.23 MB

     The potential is recalculated from file :
     /fastscratch/tsievers/QE_TMP_DIR/_ph0/silicon_ph_bench_nd_4_n_procs_32_4.save/charge-density

     Starting wfcs are    8 atomic wfcs

     Band Structure Calculation
     Davidson diagonalization with overlap

     ethr =  1.25E-10,  avg # of iterations = 12.8

     total cpu time spent up to now is      329.2 secs

     End of band structure calculation

     Number of k-points >= 100: set verbosity='high' to print the bands.

     highest occupied level (ev):     6.1106

     Writing config to output data dir /fastscratch/tsievers/QE_TMP_DIR/_ph0/silicon_ph_bench_nd_4_n_procs_32_4.save/

     default                                                                    

     bravais-lattice index     =            2
     lattice parameter (alat)  =      10.1899  a.u.
     unit-cell volume          =     264.5151 (a.u.)^3
     number of atoms/cell      =            2
     number of atomic types    =            1
     kinetic-energy cut-off    =      70.0000  Ry
     charge density cut-off    =     280.0000  Ry
     convergence threshold     =      1.0E-15
     beta                      =       0.7000
     number of iterations used =            4
     Exchange-correlation= PW
                           (   1   4   0   0   0   0   0)


     celldm(1)=   10.18990  celldm(2)=    0.00000  celldm(3)=    0.00000
     celldm(4)=    0.00000  celldm(5)=    0.00000  celldm(6)=    0.00000

     crystal axes: (cart. coord. in units of alat)
               a(1) = ( -0.5000  0.0000  0.5000 )  
               a(2) = (  0.0000  0.5000  0.5000 )  
               a(3) = ( -0.5000  0.5000  0.0000 )  

     reciprocal axes: (cart. coord. in units 2 pi/alat)
               b(1) = ( -1.0000 -1.0000  1.0000 )  
               b(2) = (  1.0000  1.0000  1.0000 )  
               b(3) = ( -1.0000  1.0000 -1.0000 )  


     Atoms inside the unit cell: 

     Cartesian axes

     site n.  atom      mass           positions (alat units)
        1     Si  28.0855   tau(    1) = (    0.00000    0.00000    0.00000  )
        2     Si  28.0855   tau(    2) = (   -0.25000    0.25000    0.25000  )

     Computing dynamical matrix for 
                    q = (  -0.3333333  -1.0000000   0.0000000 )
 
      4 Sym.Ops. (no q -> -q+G )


     G cutoff =  736.4420  (    652 G-vectors)     FFT grid: ( 40, 40, 40)
     number of k points=   432

     PseudoPot. # 1 for Si read from file:
     ./pseudos/Si.nc.UPF
     MD5 check sum: 9e2d726316af3d4752eea8ab0afbb951
     Pseudo is Norm-conserving + core correction, Zval =  4.0
     Generated using ONCVPSP code by D. R. Hamann
     Using radial grid of 1510 points,  6 beta functions with: 
                l(1) =   0
                l(2) =   0
                l(3) =   1
                l(4) =   1
                l(5) =   2
                l(6) =   2


     Atomic displacements:
     There are    3 irreducible representations

     Representation     1      2 modes -  To be done

     Representation     2      2 modes -  To be done

     Representation     3      2 modes -  To be done



     Alpha used in Ewald sum =   2.8000
     PHONON       :      1h14m CPU      1h23m WALL



     Representation #   1 modes #   1   2

     Self-consistent Calculation

      iter #   1 total cpu time :  5010.3 secs   av.it.:   6.2
      thresh= 1.000E-02 alpha_mix =  0.700 |ddv_scf|^2 =  1.970E-07

      iter #   2 total cpu time :  5020.7 secs   av.it.:  11.9
      thresh= 4.438E-05 alpha_mix =  0.700 |ddv_scf|^2 =  2.196E-07

      iter #   3 total cpu time :  5030.6 secs   av.it.:  11.2
      thresh= 4.686E-05 alpha_mix =  0.700 |ddv_scf|^2 =  1.789E-09

      iter #   4 total cpu time :  5041.9 secs   av.it.:  11.4
      thresh= 4.229E-06 alpha_mix =  0.700 |ddv_scf|^2 =  3.629E-11

      iter #   5 total cpu time :  5052.1 secs   av.it.:  11.5
      thresh= 6.024E-07 alpha_mix =  0.700 |ddv_scf|^2 =  4.189E-13

      iter #   6 total cpu time :  5062.4 secs   av.it.:  11.8
      thresh= 6.472E-08 alpha_mix =  0.700 |ddv_scf|^2 =  8.388E-15

      iter #   7 total cpu time :  5073.5 secs   av.it.:  11.7
      thresh= 9.159E-09 alpha_mix =  0.700 |ddv_scf|^2 =  4.358E-16

     End of self-consistent calculation

     Convergence has been achieved 


     Representation #   2 modes #   3   4

     Self-consistent Calculation

      iter #   1 total cpu time :  5080.3 secs   av.it.:   6.4
      thresh= 1.000E-02 alpha_mix =  0.700 |ddv_scf|^2 =  3.571E-07

      iter #   2 total cpu time :  5091.2 secs   av.it.:  11.9
      thresh= 5.976E-05 alpha_mix =  0.700 |ddv_scf|^2 =  4.005E-07

      iter #   3 total cpu time :  5102.1 secs   av.it.:  11.2
      thresh= 6.328E-05 alpha_mix =  0.700 |ddv_scf|^2 =  3.461E-09

      iter #   4 total cpu time :  5112.1 secs   av.it.:  11.3
      thresh= 5.883E-06 alpha_mix =  0.700 |ddv_scf|^2 =  3.610E-11

      iter #   5 total cpu time :  5122.5 secs   av.it.:  11.6
      thresh= 6.008E-07 alpha_mix =  0.700 |ddv_scf|^2 =  8.227E-13

      iter #   6 total cpu time :  5133.1 secs   av.it.:  11.8
      thresh= 9.070E-08 alpha_mix =  0.700 |ddv_scf|^2 =  6.527E-15

      iter #   7 total cpu time :  5143.4 secs   av.it.:  11.7
      thresh= 8.079E-09 alpha_mix =  0.700 |ddv_scf|^2 =  4.108E-16

     End of self-consistent calculation

     Convergence has been achieved 


     Representation #   3 modes #   5   6

     Self-consistent Calculation

      iter #   1 total cpu time :  5150.3 secs   av.it.:   6.5
      thresh= 1.000E-02 alpha_mix =  0.700 |ddv_scf|^2 =  4.730E-07

      iter #   2 total cpu time :  5161.1 secs   av.it.:  11.8
      thresh= 6.877E-05 alpha_mix =  0.700 |ddv_scf|^2 =  5.192E-07

      iter #   3 total cpu time :  5171.0 secs   av.it.:  11.1
      thresh= 7.205E-05 alpha_mix =  0.700 |ddv_scf|^2 =  4.189E-09

      iter #   4 total cpu time :  5180.9 secs   av.it.:  11.2
      thresh= 6.472E-06 alpha_mix =  0.700 |ddv_scf|^2 =  2.845E-11

      iter #   5 total cpu time :  5191.6 secs   av.it.:  11.6
      thresh= 5.334E-07 alpha_mix =  0.700 |ddv_scf|^2 =  2.699E-13

      iter #   6 total cpu time :  5201.9 secs   av.it.:  11.6
      thresh= 5.196E-08 alpha_mix =  0.700 |ddv_scf|^2 =  4.736E-15

      iter #   7 total cpu time :  5212.0 secs   av.it.:  11.5
      thresh= 6.882E-09 alpha_mix =  0.700 |ddv_scf|^2 =  2.843E-16

     End of self-consistent calculation

     Convergence has been achieved 
 
     Number of q in the star =   12
     List of q in the star:
          1  -0.333333333  -1.000000000   0.000000000
          2   0.000000000  -1.000000000  -0.333333333
          3   0.000000000  -1.000000000   0.333333333
          4   0.333333333  -1.000000000   0.000000000
          5  -1.000000000   0.000000000  -0.333333333
          6   1.000000000   0.000000000   0.333333333
          7   0.000000000   0.333333333   1.000000000
          8   0.000000000  -0.333333333  -1.000000000
          9  -1.000000000  -0.333333333   0.000000000
         10   1.000000000   0.333333333   0.000000000
         11  -0.333333333   0.000000000   1.000000000
         12   0.333333333   0.000000000   1.000000000

     Diagonalizing the dynamical matrix

     q = (   -0.333333333  -1.000000000   0.000000000 ) 

 **************************************************************************
     freq (    1) =       5.494005 [THz] =     183.260283 [cm-1]
     freq (    2) =       5.494005 [THz] =     183.260283 [cm-1]
     freq (    3) =      10.966332 [THz] =     365.797470 [cm-1]
     freq (    4) =      10.966332 [THz] =     365.797470 [cm-1]
     freq (    5) =      14.002416 [THz] =     467.070330 [cm-1]
     freq (    6) =      14.002416 [THz] =     467.070330 [cm-1]
 **************************************************************************
 
     init_run     :      0.23s CPU      0.32s WALL (      15 calls)
     electrons    :    295.42s CPU    305.75s WALL (      15 calls)

     Called by init_run:
     wfcinit      :      0.00s CPU      0.03s WALL (      15 calls)
     potinit      :      0.03s CPU      0.04s WALL (      15 calls)
     hinit0       :      0.11s CPU      0.11s WALL (      15 calls)

     Called by electrons:
     c_bands      :    295.42s CPU    305.75s WALL (      15 calls)
     v_of_rho     :      0.01s CPU      0.01s WALL (      16 calls)

     Called by c_bands:
     init_us_2    :      8.80s CPU      9.10s WALL (  247747 calls)
     init_us_2:cp :      8.20s CPU      8.54s WALL (  247747 calls)
     cegterg      :    257.05s CPU    262.21s WALL (    8380 calls)

     Called by *egterg:
     cdiaghg      :     71.88s CPU     73.38s WALL (  115750 calls)
     h_psi        :   3437.91s CPU   3520.09s WALL ( 2455941 calls)
     g_psi        :      0.37s CPU      0.38s WALL (  107370 calls)

     Called by h_psi:
     h_psi:calbec :    133.44s CPU    136.62s WALL ( 2455941 calls)
     vloc_psi     :   3240.52s CPU   3317.99s WALL ( 2455941 calls)
     add_vuspsi   :     42.96s CPU     44.52s WALL ( 2455941 calls)

     General routines
     calbec       :    205.72s CPU    212.61s WALL ( 4931248 calls)
     fft          :      1.03s CPU      1.08s WALL (    3913 calls)
     ffts         :      6.42s CPU      6.56s WALL (   25932 calls)
     fftw         :   3909.64s CPU   4002.53s WALL (20913382 calls)
     davcio       :     10.04s CPU     88.95s WALL ( 1043678 calls)
 
     Parallel routines
 
     PHONON       :      1h18m CPU      1h26m WALL

     INITIALIZATION: 
     phq_setup    :      0.03s CPU      0.72s WALL (      16 calls)
     phq_init     :      3.99s CPU      4.66s WALL (      16 calls)
 
     phq_init     :      3.99s CPU      4.66s WALL (      16 calls)
     set_drhoc    :      0.29s CPU      0.31s WALL (      48 calls)
     init_vloc    :      0.03s CPU      0.03s WALL (      16 calls)
     init_us_1    :      0.03s CPU      0.03s WALL (      16 calls)
     init_us_2    :      8.80s CPU      9.10s WALL (  247747 calls)
 
     DYNAMICAL MATRIX:
     dynmat0      :      2.70s CPU      3.28s WALL (      16 calls)
     phqscf       :   4378.30s CPU   4841.47s WALL (      16 calls)
     dynmatrix    :      0.10s CPU      0.33s WALL (      16 calls)
 
     phqscf       :   4378.30s CPU   4841.47s WALL (      16 calls)
     solve_linter :   4372.65s CPU   4823.01s WALL (      76 calls)
     drhodv       :      5.57s CPU      6.01s WALL (      76 calls)
 
     dynmat0      :      2.70s CPU      3.28s WALL (      16 calls)
     dynmat_us    :      2.49s CPU      2.58s WALL (      16 calls)
     d2ionq       :      0.00s CPU      0.01s WALL (      16 calls)
     dynmatcc     :      0.20s CPU      0.20s WALL (      16 calls)
 
     dynmat_us    :      2.49s CPU      2.58s WALL (      16 calls)
 
     phqscf       :   4378.30s CPU   4841.47s WALL (      16 calls)
     solve_linter :   4372.65s CPU   4823.01s WALL (      76 calls)
 
     solve_linter :   4372.65s CPU   4823.01s WALL (      76 calls)
     dvqpsi_us    :     49.37s CPU     50.46s WALL (   25476 calls)
     sth_kernel   :   4262.49s CPU   4438.61s WALL (     579 calls)
     apply_dpot_b :    270.70s CPU    278.51s WALL (  174293 calls)
     ortho        :     10.28s CPU     10.61s WALL (  199769 calls)
     cgsolve      :   3505.98s CPU   3590.57s WALL (  199769 calls)
     incdrhoscf   :    454.02s CPU    462.58s WALL (  199685 calls)
     dv_of_drho   :      0.53s CPU      0.54s WALL (     706 calls)
     mix_pot      :      5.13s CPU    156.79s WALL (     579 calls)
     psymdvscf    :      8.43s CPU      8.51s WALL (     574 calls)
 
     dvqpsi_us    :     49.37s CPU     50.46s WALL (   25476 calls)
     dvqpsi_us_on :      3.10s CPU      3.17s WALL (   25476 calls)
 
     cgsolve      :   3505.98s CPU   3590.57s WALL (  199769 calls)
     ch_psi       :   3423.22s CPU   3504.64s WALL ( 2331811 calls)
 
     ch_psi       :   3423.22s CPU   3504.64s WALL ( 2331811 calls)
     h_psi        :   3437.91s CPU   3520.09s WALL ( 2455941 calls)
     last         :    144.42s CPU    148.08s WALL ( 2331811 calls)
 
     h_psi        :   3437.91s CPU   3520.09s WALL ( 2455941 calls)
     add_vuspsi   :     42.96s CPU     44.52s WALL ( 2455941 calls)
 
     incdrhoscf   :    454.02s CPU    462.58s WALL (  199685 calls)
 
 
      General routines
     calbec       :    205.72s CPU    212.61s WALL ( 4931248 calls)
     fft          :      1.03s CPU      1.08s WALL (    3913 calls)
     ffts         :      6.42s CPU      6.56s WALL (   25932 calls)
     fftw         :   3909.64s CPU   4002.53s WALL (20913382 calls)
     davcio       :     10.04s CPU     88.95s WALL ( 1043678 calls)
     write_rec    :      0.46s CPU    139.49s WALL (     655 calls)
 
 
     PHONON       :      1h18m CPU      1h26m WALL

 
   This run was terminated on:  18:58:28  27Jun2022            

=------------------------------------------------------------------------------=
   JOB DONE.
=------------------------------------------------------------------------------=
real 5216.40
user 95660.25
sys 2075.08
