
     Program PHONON v.7.0 starts on 27Jun2022 at  4:17:34 

     This program is part of the open-source Quantum ESPRESSO suite
     for quantum simulation of materials; please cite
         "P. Giannozzi et al., J. Phys.:Condens. Matter 21 395502 (2009);
         "P. Giannozzi et al., J. Phys.:Condens. Matter 29 465901 (2017);
         "P. Giannozzi et al., J. Chem. Phys. 152 154105 (2020);
          URL http://www.quantum-espresso.org", 
     in publications or presentations arising from this work. More details at
     http://www.quantum-espresso.org/quote

     Parallel version (MPI), running on    80 processors

     MPI processes distributed on     4 nodes
     path-images division:  nimage    =       2
     K-points division:     npool     =       5
     R & G space division:  proc/nbgrp/npool/nimage =       8
     3516 MiB available memory on the printing compute node when the environment starts
 
      Title line not specified: using 'default'.

     Reading xml data from directory:

     /fastscratch/tsievers/QE_TMP_DIR/si_ph_bench_nimages_2_n_procs_80_2.save/

     IMPORTANT: XC functional enforced from input :
     Exchange-correlation= PW
                           (   1   4   0   0   0   0   0)
     Any further DFT definition will be discarded
     Please, verify this is what you really want

 
     Parallelization info
     --------------------
     sticks:   dense  smooth     PW     G-vecs:    dense   smooth      PW
     Min         125     125     37                 2608     2608     433
     Max         126     126     38                 2611     2611     436
     Sum        1003    1003    301                20875    20875    3479
 
     Using Slab Decomposition
 
     Reading collected, re-writing distributed wavefunctions


     Dynamical matrices for ( 6, 6, 6)  uniform grid of q-points
     (  16 q-points):
       N         xq(1)         xq(2)         xq(3) 
       1   0.000000000   0.000000000   0.000000000
       2  -0.166666667   0.166666667  -0.166666667
       3  -0.333333333   0.333333333  -0.333333333
       4   0.500000000  -0.500000000   0.500000000
       5   0.000000000   0.333333333   0.000000000
       6  -0.166666667   0.500000000  -0.166666667
       7   0.666666667  -0.333333333   0.666666667
       8   0.500000000  -0.166666667   0.500000000
       9   0.333333333   0.000000000   0.333333333
      10   0.000000000   0.666666667   0.000000000
      11   0.833333333  -0.166666667   0.833333333
      12   0.666666667  -0.000000000   0.666666667
      13   0.000000000  -1.000000000   0.000000000
      14   0.666666667  -0.333333333   1.000000000
      15   0.500000000  -0.166666667   0.833333333
      16  -0.333333333  -1.000000000   0.000000000

      Image parallelization. There are  2 images and    76 representations
      The estimated total work is  1512 self-consistent (scf) runs
      I am image number     1 and my work is about  759 scf runs. I calculate: 
      q point number     9, representations:
       5 6
      q point number    10, representations:
       0 1 2 3 4
      q point number    11, representations:
       0 1 2 3 4 5 6
      q point number    12, representations:
       0 1 2 3 4 5 6
      q point number    13, representations:
       0 1 2 3
      q point number    14, representations:
       0 1 2 3 4 5 6
      q point number    15, representations:
       0 1 2 3 4 5 6
      q point number    16, representations:
       0 1 2 3

     Calculation of q =    0.3333333   0.0000000   0.3333333

     Subspace diagonalization in iterative solution of the eigenvalue problem:
     a serial algorithm will be used

 
     Parallelization info
     --------------------
     sticks:   dense  smooth     PW     G-vecs:    dense   smooth      PW
     Min         125     125     39                 2608     2608     479
     Max         126     126     40                 2611     2611     484
     Sum        1003    1003    313                20875    20875    3839
 
     Using Slab Decomposition
 

     Title: 
     default                                                                    


     bravais-lattice index     =            2
     lattice parameter (alat)  =      10.1899  a.u.
     unit-cell volume          =     264.5151 (a.u.)^3
     number of atoms/cell      =            2
     number of atomic types    =            1
     number of electrons       =         8.00
     number of Kohn-Sham states=            4
     kinetic-energy cutoff     =      70.0000  Ry
     charge density cutoff     =     280.0000  Ry
     Exchange-correlation= PW
                           (   1   4   0   0   0   0   0)

     celldm(1)=  10.189905  celldm(2)=   0.000000  celldm(3)=   0.000000
     celldm(4)=   0.000000  celldm(5)=   0.000000  celldm(6)=   0.000000

     crystal axes: (cart. coord. in units of alat)
               a(1) = (  -0.500000   0.000000   0.500000 )  
               a(2) = (   0.000000   0.500000   0.500000 )  
               a(3) = (  -0.500000   0.500000   0.000000 )  

     reciprocal axes: (cart. coord. in units 2 pi/alat)
               b(1) = ( -1.000000 -1.000000  1.000000 )  
               b(2) = (  1.000000  1.000000  1.000000 )  
               b(3) = ( -1.000000  1.000000 -1.000000 )  


     PseudoPot. # 1 for Si read from file:
     /fastscratch/tsievers/si_ph_benchmark_images//pseudos/Si.nc.UPF
     MD5 check sum: 9e2d726316af3d4752eea8ab0afbb951
     Pseudo is Norm-conserving + core correction, Zval =  4.0
     Generated using ONCVPSP code by D. R. Hamann
     Using radial grid of 1510 points,  6 beta functions with: 
                l(1) =   0
                l(2) =   0
                l(3) =   1
                l(4) =   1
                l(5) =   2
                l(6) =   2

     atomic species   valence    mass     pseudopotential
        Si             4.00    28.08550     Si( 1.00)

     48 Sym. Ops., with inversion, found



   Cartesian axes

     site n.     atom                  positions (alat units)
         1           Si  tau(   1) = (   0.0000000   0.0000000   0.0000000  )
         2           Si  tau(   2) = (  -0.2500000   0.2500000   0.2500000  )

     number of k points=   468

     Number of k-points >= 100: set verbosity='high' to print them.

     Dense  grid:    20875 G-vectors     FFT dimensions: (  40,  40,  40)

     Estimated max dynamical RAM per process >       2.64 MB

     Estimated total dynamical RAM >     105.53 MB

     The potential is recalculated from file :
     /fastscratch/tsievers/QE_TMP_DIR/_ph1/si_ph_bench_nimages_2_n_procs_80_2.save/charge-density

     Starting wfcs are    8 atomic wfcs

     Band Structure Calculation
     Davidson diagonalization with overlap

     ethr =  1.25E-10,  avg # of iterations = 12.8

     total cpu time spent up to now is        1.7 secs

     End of band structure calculation

     Number of k-points >= 100: set verbosity='high' to print the bands.

     highest occupied level (ev):     6.1106

     Writing config to output data dir /fastscratch/tsievers/QE_TMP_DIR/_ph1/si_ph_bench_nimages_2_n_procs_80_2.save/

     default                                                                    

     bravais-lattice index     =            2
     lattice parameter (alat)  =      10.1899  a.u.
     unit-cell volume          =     264.5151 (a.u.)^3
     number of atoms/cell      =            2
     number of atomic types    =            1
     kinetic-energy cut-off    =      70.0000  Ry
     charge density cut-off    =     280.0000  Ry
     convergence threshold     =      1.0E-15
     beta                      =       0.7000
     number of iterations used =            4
     Exchange-correlation= PW
                           (   1   4   0   0   0   0   0)


     celldm(1)=   10.18990  celldm(2)=    0.00000  celldm(3)=    0.00000
     celldm(4)=    0.00000  celldm(5)=    0.00000  celldm(6)=    0.00000

     crystal axes: (cart. coord. in units of alat)
               a(1) = ( -0.5000  0.0000  0.5000 )  
               a(2) = (  0.0000  0.5000  0.5000 )  
               a(3) = ( -0.5000  0.5000  0.0000 )  

     reciprocal axes: (cart. coord. in units 2 pi/alat)
               b(1) = ( -1.0000 -1.0000  1.0000 )  
               b(2) = (  1.0000  1.0000  1.0000 )  
               b(3) = ( -1.0000  1.0000 -1.0000 )  


     Atoms inside the unit cell: 

     Cartesian axes

     site n.  atom      mass           positions (alat units)
        1     Si  28.0855   tau(    1) = (    0.00000    0.00000    0.00000  )
        2     Si  28.0855   tau(    2) = (   -0.25000    0.25000    0.25000  )

     Computing dynamical matrix for 
                    q = (   0.3333333   0.0000000   0.3333333 )
 
      4 Sym.Ops. (no q -> -q+G )


     G cutoff =  736.4420  (   2611 G-vectors)     FFT grid: ( 40, 40, 40)
     number of k points=   468

     PseudoPot. # 1 for Si read from file:
     /fastscratch/tsievers/si_ph_benchmark_images//pseudos/Si.nc.UPF
     MD5 check sum: 9e2d726316af3d4752eea8ab0afbb951
     Pseudo is Norm-conserving + core correction, Zval =  4.0
     Generated using ONCVPSP code by D. R. Hamann
     Using radial grid of 1510 points,  6 beta functions with: 
                l(1) =   0
                l(2) =   0
                l(3) =   1
                l(4) =   1
                l(5) =   2
                l(6) =   2

     Mode symmetry, C_2v (mm2)  point group:


     Atomic displacements:
     There are    6 irreducible representations

     Representation     1      1 modes -  Not done in this run

     Representation     2      1 modes -  Not done in this run

     Representation     3      1 modes -  Not done in this run

     Representation     4      1 modes -  Not done in this run

     Representation     5      1 modes -  To be done

     Representation     6      1 modes -  To be done

     Compute atoms:     1,    2,


     PHONON       :      2.27s CPU      4.66s WALL



     Representation #   5 mode #   5

     Self-consistent Calculation

      iter #   1 total cpu time :     5.2 secs   av.it.:   5.4
      thresh= 1.000E-02 alpha_mix =  0.700 |ddv_scf|^2 =  1.065E-07

      iter #   2 total cpu time :     7.1 secs   av.it.:  10.7
      thresh= 3.264E-05 alpha_mix =  0.700 |ddv_scf|^2 =  3.512E-08

      iter #   3 total cpu time :     7.9 secs   av.it.:  10.2
      thresh= 1.874E-05 alpha_mix =  0.700 |ddv_scf|^2 =  4.471E-10

      iter #   4 total cpu time :     8.9 secs   av.it.:  10.3
      thresh= 2.114E-06 alpha_mix =  0.700 |ddv_scf|^2 =  7.379E-12

      iter #   5 total cpu time :    10.3 secs   av.it.:  10.5
      thresh= 2.716E-07 alpha_mix =  0.700 |ddv_scf|^2 =  2.491E-13

      iter #   6 total cpu time :    12.0 secs   av.it.:  10.6
      thresh= 4.991E-08 alpha_mix =  0.700 |ddv_scf|^2 =  5.574E-15

      iter #   7 total cpu time :    12.8 secs   av.it.:  10.7
      thresh= 7.466E-09 alpha_mix =  0.700 |ddv_scf|^2 =  3.870E-17

     End of self-consistent calculation

     Convergence has been achieved 


     Representation #   6 mode #   6

     Self-consistent Calculation

      iter #   1 total cpu time :    14.4 secs   av.it.:   6.1
      thresh= 1.000E-02 alpha_mix =  0.700 |ddv_scf|^2 =  1.175E-06

      iter #   2 total cpu time :    15.4 secs   av.it.:  10.6
      thresh= 1.084E-04 alpha_mix =  0.700 |ddv_scf|^2 =  4.121E-07

      iter #   3 total cpu time :    16.2 secs   av.it.:  10.1
      thresh= 6.420E-05 alpha_mix =  0.700 |ddv_scf|^2 =  1.147E-09

      iter #   4 total cpu time :    17.9 secs   av.it.:  10.4
      thresh= 3.387E-06 alpha_mix =  0.700 |ddv_scf|^2 =  5.982E-11

      iter #   5 total cpu time :    19.0 secs   av.it.:  10.4
      thresh= 7.735E-07 alpha_mix =  0.700 |ddv_scf|^2 =  1.896E-13

      iter #   6 total cpu time :    20.0 secs   av.it.:  10.4
      thresh= 4.354E-08 alpha_mix =  0.700 |ddv_scf|^2 =  2.325E-15

      iter #   7 total cpu time :    20.8 secs   av.it.:  10.6
      thresh= 4.822E-09 alpha_mix =  0.700 |ddv_scf|^2 =  7.186E-17

     End of self-consistent calculation

     Convergence has been achieved 

     Not diagonalizing because representation    0 is not done

     Calculation of q =    0.0000000   0.6666667   0.0000000
 
     Parallelization info
     --------------------
     sticks:   dense  smooth     PW     G-vecs:    dense   smooth      PW
     Min         125     125     39                 2608     2608     479
     Max         126     126     40                 2611     2611     484
     Sum        1003    1003    313                20875    20875    3839
 
     Using Slab Decomposition
 

     Title: 
     default                                                                    


     bravais-lattice index     =            2
     lattice parameter (alat)  =      10.1899  a.u.
     unit-cell volume          =     264.5151 (a.u.)^3
     number of atoms/cell      =            2
     number of atomic types    =            1
     number of electrons       =         8.00
     number of Kohn-Sham states=            4
     kinetic-energy cutoff     =      70.0000  Ry
     charge density cutoff     =     280.0000  Ry
     Exchange-correlation= PW
                           (   1   4   0   0   0   0   0)

     celldm(1)=  10.189905  celldm(2)=   0.000000  celldm(3)=   0.000000
     celldm(4)=   0.000000  celldm(5)=   0.000000  celldm(6)=   0.000000

     crystal axes: (cart. coord. in units of alat)
               a(1) = (  -0.500000   0.000000   0.500000 )  
               a(2) = (   0.000000   0.500000   0.500000 )  
               a(3) = (  -0.500000   0.500000   0.000000 )  

     reciprocal axes: (cart. coord. in units 2 pi/alat)
               b(1) = ( -1.000000 -1.000000  1.000000 )  
               b(2) = (  1.000000  1.000000  1.000000 )  
               b(3) = ( -1.000000  1.000000 -1.000000 )  


     PseudoPot. # 1 for Si read from file:
     /fastscratch/tsievers/si_ph_benchmark_images//pseudos/Si.nc.UPF
     MD5 check sum: 9e2d726316af3d4752eea8ab0afbb951
     Pseudo is Norm-conserving + core correction, Zval =  4.0
     Generated using ONCVPSP code by D. R. Hamann
     Using radial grid of 1510 points,  6 beta functions with: 
                l(1) =   0
                l(2) =   0
                l(3) =   1
                l(4) =   1
                l(5) =   2
                l(6) =   2

     atomic species   valence    mass     pseudopotential
        Si             4.00    28.08550     Si( 1.00)

     48 Sym. Ops., with inversion, found



   Cartesian axes

     site n.     atom                  positions (alat units)
         1           Si  tau(   1) = (   0.0000000   0.0000000   0.0000000  )
         2           Si  tau(   2) = (  -0.2500000   0.2500000   0.2500000  )

     number of k points=   252

     Number of k-points >= 100: set verbosity='high' to print them.

     Dense  grid:    20875 G-vectors     FFT dimensions: (  40,  40,  40)

     Estimated max dynamical RAM per process >       2.65 MB

     Estimated total dynamical RAM >     105.92 MB

     The potential is recalculated from file :
     /fastscratch/tsievers/QE_TMP_DIR/_ph1/si_ph_bench_nimages_2_n_procs_80_2.save/charge-density

     Starting wfcs are    8 atomic wfcs

     Band Structure Calculation
     Davidson diagonalization with overlap

     ethr =  1.25E-10,  avg # of iterations = 12.8

     total cpu time spent up to now is        3.8 secs

     End of band structure calculation

     Number of k-points >= 100: set verbosity='high' to print the bands.

     highest occupied level (ev):     6.1106

     Writing config to output data dir /fastscratch/tsievers/QE_TMP_DIR/_ph1/si_ph_bench_nimages_2_n_procs_80_2.save/

     default                                                                    

     bravais-lattice index     =            2
     lattice parameter (alat)  =      10.1899  a.u.
     unit-cell volume          =     264.5151 (a.u.)^3
     number of atoms/cell      =            2
     number of atomic types    =            1
     kinetic-energy cut-off    =      70.0000  Ry
     charge density cut-off    =     280.0000  Ry
     convergence threshold     =      1.0E-15
     beta                      =       0.7000
     number of iterations used =            4
     Exchange-correlation= PW
                           (   1   4   0   0   0   0   0)


     celldm(1)=   10.18990  celldm(2)=    0.00000  celldm(3)=    0.00000
     celldm(4)=    0.00000  celldm(5)=    0.00000  celldm(6)=    0.00000

     crystal axes: (cart. coord. in units of alat)
               a(1) = ( -0.5000  0.0000  0.5000 )  
               a(2) = (  0.0000  0.5000  0.5000 )  
               a(3) = ( -0.5000  0.5000  0.0000 )  

     reciprocal axes: (cart. coord. in units 2 pi/alat)
               b(1) = ( -1.0000 -1.0000  1.0000 )  
               b(2) = (  1.0000  1.0000  1.0000 )  
               b(3) = ( -1.0000  1.0000 -1.0000 )  


     Atoms inside the unit cell: 

     Cartesian axes

     site n.  atom      mass           positions (alat units)
        1     Si  28.0855   tau(    1) = (    0.00000    0.00000    0.00000  )
        2     Si  28.0855   tau(    2) = (   -0.25000    0.25000    0.25000  )

     Computing dynamical matrix for 
                    q = (   0.0000000   0.6666667   0.0000000 )
 
      8 Sym.Ops. (no q -> -q+G )


     G cutoff =  736.4420  (   2611 G-vectors)     FFT grid: ( 40, 40, 40)
     number of k points=   252

     PseudoPot. # 1 for Si read from file:
     /fastscratch/tsievers/si_ph_benchmark_images//pseudos/Si.nc.UPF
     MD5 check sum: 9e2d726316af3d4752eea8ab0afbb951
     Pseudo is Norm-conserving + core correction, Zval =  4.0
     Generated using ONCVPSP code by D. R. Hamann
     Using radial grid of 1510 points,  6 beta functions with: 
                l(1) =   0
                l(2) =   0
                l(3) =   1
                l(4) =   1
                l(5) =   2
                l(6) =   2

     Mode symmetry, C_4v (4mm)  point group:


     Atomic displacements:
     There are    4 irreducible representations

     Representation     1      1 modes -  To be done

     Representation     2      1 modes -  To be done

     Representation     3      2 modes -  To be done

     Representation     4      2 modes -  To be done



     Alpha used in Ewald sum =   2.8000
     PHONON       :     16.62s CPU     24.66s WALL



     Representation #   1 mode #   1

     Self-consistent Calculation

      iter #   1 total cpu time :    25.1 secs   av.it.:   6.6
      thresh= 1.000E-02 alpha_mix =  0.700 |ddv_scf|^2 =  9.954E-05

      iter #   2 total cpu time :    25.6 secs   av.it.:   9.9
      thresh= 9.977E-04 alpha_mix =  0.700 |ddv_scf|^2 =  6.208E-04

      iter #   3 total cpu time :    26.1 secs   av.it.:   8.6
      thresh= 2.492E-03 alpha_mix =  0.700 |ddv_scf|^2 =  4.232E-09

      iter #   4 total cpu time :    26.8 secs   av.it.:  10.1
      thresh= 6.506E-06 alpha_mix =  0.700 |ddv_scf|^2 =  2.494E-10

      iter #   5 total cpu time :    29.2 secs   av.it.:  10.1
      thresh= 1.579E-06 alpha_mix =  0.700 |ddv_scf|^2 =  7.850E-12

      iter #   6 total cpu time :    29.8 secs   av.it.:  10.2
      thresh= 2.802E-07 alpha_mix =  0.700 |ddv_scf|^2 =  1.535E-13

      iter #   7 total cpu time :    30.2 secs   av.it.:   9.4
      thresh= 3.918E-08 alpha_mix =  0.700 |ddv_scf|^2 =  2.948E-16

     End of self-consistent calculation

     Convergence has been achieved 


     Representation #   2 mode #   2

     Self-consistent Calculation

      iter #   1 total cpu time :    30.7 secs   av.it.:   6.0
      thresh= 1.000E-02 alpha_mix =  0.700 |ddv_scf|^2 =  1.332E-06

      iter #   2 total cpu time :    31.2 secs   av.it.:  10.3
      thresh= 1.154E-04 alpha_mix =  0.700 |ddv_scf|^2 =  5.610E-07

      iter #   3 total cpu time :    31.8 secs   av.it.:   9.8
      thresh= 7.490E-05 alpha_mix =  0.700 |ddv_scf|^2 =  8.309E-10

      iter #   4 total cpu time :    32.6 secs   av.it.:  10.2
      thresh= 2.883E-06 alpha_mix =  0.700 |ddv_scf|^2 =  4.889E-11

      iter #   5 total cpu time :    33.1 secs   av.it.:  10.3
      thresh= 6.992E-07 alpha_mix =  0.700 |ddv_scf|^2 =  8.686E-14

      iter #   6 total cpu time :    33.8 secs   av.it.:  10.3
      thresh= 2.947E-08 alpha_mix =  0.700 |ddv_scf|^2 =  1.776E-15

      iter #   7 total cpu time :    34.2 secs   av.it.:  10.3
      thresh= 4.214E-09 alpha_mix =  0.700 |ddv_scf|^2 =  2.809E-17

     End of self-consistent calculation

     Convergence has been achieved 


     Representation #   3 modes #   3   4

     Self-consistent Calculation

      iter #   1 total cpu time :    36.1 secs   av.it.:   6.0
      thresh= 1.000E-02 alpha_mix =  0.700 |ddv_scf|^2 =  1.211E-07

      iter #   2 total cpu time :    37.3 secs   av.it.:  11.3
      thresh= 3.480E-05 alpha_mix =  0.700 |ddv_scf|^2 =  2.568E-08

      iter #   3 total cpu time :    38.9 secs   av.it.:  10.9
      thresh= 1.602E-05 alpha_mix =  0.700 |ddv_scf|^2 =  7.906E-11

      iter #   4 total cpu time :    39.9 secs   av.it.:  11.3
      thresh= 8.891E-07 alpha_mix =  0.700 |ddv_scf|^2 =  2.393E-13

      iter #   5 total cpu time :    40.9 secs   av.it.:  11.3
      thresh= 4.892E-08 alpha_mix =  0.700 |ddv_scf|^2 =  2.730E-15

      iter #   6 total cpu time :    42.1 secs   av.it.:  11.3
      thresh= 5.225E-09 alpha_mix =  0.700 |ddv_scf|^2 =  4.492E-17

     End of self-consistent calculation

     Convergence has been achieved 


     Representation #   4 modes #   5   6

     Self-consistent Calculation

      iter #   1 total cpu time :    43.4 secs   av.it.:   6.2
      thresh= 1.000E-02 alpha_mix =  0.700 |ddv_scf|^2 =  1.906E-07

      iter #   2 total cpu time :    44.5 secs   av.it.:  11.3
      thresh= 4.365E-05 alpha_mix =  0.700 |ddv_scf|^2 =  4.099E-08

      iter #   3 total cpu time :    45.6 secs   av.it.:  11.0
      thresh= 2.025E-05 alpha_mix =  0.700 |ddv_scf|^2 =  8.738E-11

      iter #   4 total cpu time :    47.2 secs   av.it.:  11.3
      thresh= 9.348E-07 alpha_mix =  0.700 |ddv_scf|^2 =  2.190E-13

      iter #   5 total cpu time :    48.2 secs   av.it.:  11.3
      thresh= 4.680E-08 alpha_mix =  0.700 |ddv_scf|^2 =  3.663E-15

      iter #   6 total cpu time :    49.5 secs   av.it.:  11.4
      thresh= 6.052E-09 alpha_mix =  0.700 |ddv_scf|^2 =  4.318E-17

     End of self-consistent calculation

     Convergence has been achieved 
 
     Number of q in the star =    6
     List of q in the star:
          1   0.000000000   0.666666667   0.000000000
          2   0.000000000  -0.666666667   0.000000000
          3   0.666666667   0.000000000   0.000000000
          4  -0.666666667   0.000000000   0.000000000
          5   0.000000000   0.000000000   0.666666667
          6   0.000000000   0.000000000  -0.666666667

     Diagonalizing the dynamical matrix

     q = (    0.000000000   0.666666667   0.000000000 ) 

 **************************************************************************
     freq (    1) =       4.039053 [THz] =     134.728292 [cm-1]
     freq (    2) =       4.039053 [THz] =     134.728292 [cm-1]
     freq (    3) =       9.188737 [THz] =     306.503284 [cm-1]
     freq (    4) =      13.988686 [THz] =     466.612345 [cm-1]
     freq (    5) =      13.988686 [THz] =     466.612345 [cm-1]
     freq (    6) =      14.186757 [THz] =     473.219262 [cm-1]
 **************************************************************************

     Mode symmetry, C_4v (4mm)  point group:

     freq (   1-   2) =        134.7  [cm-1]   --> E    G_5 D_5       
     freq (   3-   3) =        306.5  [cm-1]   --> A_1  G_1 D_1       
     freq (   4-   5) =        466.6  [cm-1]   --> E    G_5 D_5       
     freq (   6-   6) =        473.2  [cm-1]   --> B_2  G_4 D_2'      

     Calculation of q =    0.8333333  -0.1666667   0.8333333
 
     Parallelization info
     --------------------
     sticks:   dense  smooth     PW     G-vecs:    dense   smooth      PW
     Min         125     125     43                 2608     2608     534
     Max         126     126     44                 2611     2611     537
     Sum        1003    1003    349                20875    20875    4285
 
     Using Slab Decomposition
 

     Title: 
     default                                                                    


     bravais-lattice index     =            2
     lattice parameter (alat)  =      10.1899  a.u.
     unit-cell volume          =     264.5151 (a.u.)^3
     number of atoms/cell      =            2
     number of atomic types    =            1
     number of electrons       =         8.00
     number of Kohn-Sham states=            4
     kinetic-energy cutoff     =      70.0000  Ry
     charge density cutoff     =     280.0000  Ry
     Exchange-correlation= PW
                           (   1   4   0   0   0   0   0)

     celldm(1)=  10.189905  celldm(2)=   0.000000  celldm(3)=   0.000000
     celldm(4)=   0.000000  celldm(5)=   0.000000  celldm(6)=   0.000000

     crystal axes: (cart. coord. in units of alat)
               a(1) = (  -0.500000   0.000000   0.500000 )  
               a(2) = (   0.000000   0.500000   0.500000 )  
               a(3) = (  -0.500000   0.500000   0.000000 )  

     reciprocal axes: (cart. coord. in units 2 pi/alat)
               b(1) = ( -1.000000 -1.000000  1.000000 )  
               b(2) = (  1.000000  1.000000  1.000000 )  
               b(3) = ( -1.000000  1.000000 -1.000000 )  


     PseudoPot. # 1 for Si read from file:
     /fastscratch/tsievers/si_ph_benchmark_images//pseudos/Si.nc.UPF
     MD5 check sum: 9e2d726316af3d4752eea8ab0afbb951
     Pseudo is Norm-conserving + core correction, Zval =  4.0
     Generated using ONCVPSP code by D. R. Hamann
     Using radial grid of 1510 points,  6 beta functions with: 
                l(1) =   0
                l(2) =   0
                l(3) =   1
                l(4) =   1
                l(5) =   2
                l(6) =   2

     atomic species   valence    mass     pseudopotential
        Si             4.00    28.08550     Si( 1.00)

     48 Sym. Ops., with inversion, found



   Cartesian axes

     site n.     atom                  positions (alat units)
         1           Si  tau(   1) = (   0.0000000   0.0000000   0.0000000  )
         2           Si  tau(   2) = (  -0.2500000   0.2500000   0.2500000  )

     number of k points=   936

     Number of k-points >= 100: set verbosity='high' to print them.

     Dense  grid:    20875 G-vectors     FFT dimensions: (  40,  40,  40)

     Estimated max dynamical RAM per process >       2.67 MB

     Estimated total dynamical RAM >     106.94 MB

     The potential is recalculated from file :
     /fastscratch/tsievers/QE_TMP_DIR/_ph1/si_ph_bench_nimages_2_n_procs_80_2.save/charge-density

     Starting wfcs are    8 atomic wfcs

     Band Structure Calculation
     Davidson diagonalization with overlap

     ethr =  1.25E-10,  avg # of iterations = 12.8

     total cpu time spent up to now is        7.9 secs

     End of band structure calculation

     Number of k-points >= 100: set verbosity='high' to print the bands.

     highest occupied level (ev):     6.1106

     Writing config to output data dir /fastscratch/tsievers/QE_TMP_DIR/_ph1/si_ph_bench_nimages_2_n_procs_80_2.save/

     default                                                                    

     bravais-lattice index     =            2
     lattice parameter (alat)  =      10.1899  a.u.
     unit-cell volume          =     264.5151 (a.u.)^3
     number of atoms/cell      =            2
     number of atomic types    =            1
     kinetic-energy cut-off    =      70.0000  Ry
     charge density cut-off    =     280.0000  Ry
     convergence threshold     =      1.0E-15
     beta                      =       0.7000
     number of iterations used =            4
     Exchange-correlation= PW
                           (   1   4   0   0   0   0   0)


     celldm(1)=   10.18990  celldm(2)=    0.00000  celldm(3)=    0.00000
     celldm(4)=    0.00000  celldm(5)=    0.00000  celldm(6)=    0.00000

     crystal axes: (cart. coord. in units of alat)
               a(1) = ( -0.5000  0.0000  0.5000 )  
               a(2) = (  0.0000  0.5000  0.5000 )  
               a(3) = ( -0.5000  0.5000  0.0000 )  

     reciprocal axes: (cart. coord. in units 2 pi/alat)
               b(1) = ( -1.0000 -1.0000  1.0000 )  
               b(2) = (  1.0000  1.0000  1.0000 )  
               b(3) = ( -1.0000  1.0000 -1.0000 )  


     Atoms inside the unit cell: 

     Cartesian axes

     site n.  atom      mass           positions (alat units)
        1     Si  28.0855   tau(    1) = (    0.00000    0.00000    0.00000  )
        2     Si  28.0855   tau(    2) = (   -0.25000    0.25000    0.25000  )

     Computing dynamical matrix for 
                    q = (   0.8333333  -0.1666667   0.8333333 )
 
      2 Sym.Ops. (no q -> -q+G )


     G cutoff =  736.4420  (   2611 G-vectors)     FFT grid: ( 40, 40, 40)
     number of k points=   936

     PseudoPot. # 1 for Si read from file:
     /fastscratch/tsievers/si_ph_benchmark_images//pseudos/Si.nc.UPF
     MD5 check sum: 9e2d726316af3d4752eea8ab0afbb951
     Pseudo is Norm-conserving + core correction, Zval =  4.0
     Generated using ONCVPSP code by D. R. Hamann
     Using radial grid of 1510 points,  6 beta functions with: 
                l(1) =   0
                l(2) =   0
                l(3) =   1
                l(4) =   1
                l(5) =   2
                l(6) =   2

     Mode symmetry, C_s (m)     point group:


     Atomic displacements:
     There are    6 irreducible representations

     Representation     1      1 modes -  To be done

     Representation     2      1 modes -  To be done

     Representation     3      1 modes -  To be done

     Representation     4      1 modes -  To be done

     Representation     5      1 modes -  To be done

     Representation     6      1 modes -  To be done



     Alpha used in Ewald sum =   2.8000
     PHONON       :     39.15s CPU     57.53s WALL



     Representation #   1 mode #   1

     Self-consistent Calculation

      iter #   1 total cpu time :    59.1 secs   av.it.:   6.5
      thresh= 1.000E-02 alpha_mix =  0.700 |ddv_scf|^2 =  1.083E-05

      iter #   2 total cpu time :    60.9 secs   av.it.:  10.4
      thresh= 3.292E-04 alpha_mix =  0.700 |ddv_scf|^2 =  2.655E-05

      iter #   3 total cpu time :    63.2 secs   av.it.:   9.4
      thresh= 5.153E-04 alpha_mix =  0.700 |ddv_scf|^2 =  1.234E-07

      iter #   4 total cpu time :    64.6 secs   av.it.:   9.9
      thresh= 3.512E-05 alpha_mix =  0.700 |ddv_scf|^2 =  9.139E-10

      iter #   5 total cpu time :    67.5 secs   av.it.:  10.4
      thresh= 3.023E-06 alpha_mix =  0.700 |ddv_scf|^2 =  1.580E-10

      iter #   6 total cpu time :    69.2 secs   av.it.:  10.3
      thresh= 1.257E-06 alpha_mix =  0.700 |ddv_scf|^2 =  3.223E-12

      iter #   7 total cpu time :    70.7 secs   av.it.:  10.5
      thresh= 1.795E-07 alpha_mix =  0.700 |ddv_scf|^2 =  1.088E-13

      iter #   8 total cpu time :    72.8 secs   av.it.:  10.6
      thresh= 3.298E-08 alpha_mix =  0.700 |ddv_scf|^2 =  2.939E-14

      iter #   9 total cpu time :    74.5 secs   av.it.:  10.2
      thresh= 1.714E-08 alpha_mix =  0.700 |ddv_scf|^2 =  2.231E-14

      iter #  10 total cpu time :    75.8 secs   av.it.:   9.6
      thresh= 1.494E-08 alpha_mix =  0.700 |ddv_scf|^2 =  7.632E-16

     End of self-consistent calculation

     Convergence has been achieved 


     Representation #   2 mode #   2

     Self-consistent Calculation

      iter #   1 total cpu time :    78.0 secs   av.it.:   6.5
      thresh= 1.000E-02 alpha_mix =  0.700 |ddv_scf|^2 =  1.040E-05

      iter #   2 total cpu time :    79.7 secs   av.it.:  10.5
      thresh= 3.225E-04 alpha_mix =  0.700 |ddv_scf|^2 =  2.545E-05

      iter #   3 total cpu time :    81.6 secs   av.it.:   9.5
      thresh= 5.045E-04 alpha_mix =  0.700 |ddv_scf|^2 =  1.219E-07

      iter #   4 total cpu time :    83.2 secs   av.it.:  10.0
      thresh= 3.491E-05 alpha_mix =  0.700 |ddv_scf|^2 =  8.401E-10

      iter #   5 total cpu time :    84.6 secs   av.it.:  10.4
      thresh= 2.898E-06 alpha_mix =  0.700 |ddv_scf|^2 =  9.367E-11

      iter #   6 total cpu time :    86.2 secs   av.it.:  10.3
      thresh= 9.678E-07 alpha_mix =  0.700 |ddv_scf|^2 =  5.832E-12

      iter #   7 total cpu time :    87.8 secs   av.it.:  10.5
      thresh= 2.415E-07 alpha_mix =  0.700 |ddv_scf|^2 =  2.965E-13

      iter #   8 total cpu time :    89.7 secs   av.it.:  10.5
      thresh= 5.445E-08 alpha_mix =  0.700 |ddv_scf|^2 =  2.452E-14

      iter #   9 total cpu time :    91.5 secs   av.it.:  10.2
      thresh= 1.566E-08 alpha_mix =  0.700 |ddv_scf|^2 =  1.976E-14

      iter #  10 total cpu time :    94.7 secs   av.it.:   9.8
      thresh= 1.406E-08 alpha_mix =  0.700 |ddv_scf|^2 =  1.478E-15

      iter #  11 total cpu time :    96.1 secs   av.it.:  10.1
      thresh= 3.845E-09 alpha_mix =  0.700 |ddv_scf|^2 =  5.977E-17

     End of self-consistent calculation

     Convergence has been achieved 


     Representation #   3 mode #   3

     Self-consistent Calculation

      iter #   1 total cpu time :    98.2 secs   av.it.:   6.3
      thresh= 1.000E-02 alpha_mix =  0.700 |ddv_scf|^2 =  4.968E-06

      iter #   2 total cpu time :    99.9 secs   av.it.:  10.4
      thresh= 2.229E-04 alpha_mix =  0.700 |ddv_scf|^2 =  9.934E-06

      iter #   3 total cpu time :   101.5 secs   av.it.:   9.4
      thresh= 3.152E-04 alpha_mix =  0.700 |ddv_scf|^2 =  1.553E-07

      iter #   4 total cpu time :   103.2 secs   av.it.:   9.8
      thresh= 3.941E-05 alpha_mix =  0.700 |ddv_scf|^2 =  5.816E-10

      iter #   5 total cpu time :   105.0 secs   av.it.:  10.5
      thresh= 2.412E-06 alpha_mix =  0.700 |ddv_scf|^2 =  1.651E-10

      iter #   6 total cpu time :   106.8 secs   av.it.:  10.2
      thresh= 1.285E-06 alpha_mix =  0.700 |ddv_scf|^2 =  3.635E-12

      iter #   7 total cpu time :   108.9 secs   av.it.:  10.5
      thresh= 1.906E-07 alpha_mix =  0.700 |ddv_scf|^2 =  1.260E-13

      iter #   8 total cpu time :   110.8 secs   av.it.:  10.6
      thresh= 3.549E-08 alpha_mix =  0.700 |ddv_scf|^2 =  1.594E-14

      iter #   9 total cpu time :   112.6 secs   av.it.:  10.3
      thresh= 1.262E-08 alpha_mix =  0.700 |ddv_scf|^2 =  1.036E-14

      iter #  10 total cpu time :   113.9 secs   av.it.:   9.5
      thresh= 1.018E-08 alpha_mix =  0.700 |ddv_scf|^2 =  2.421E-16

     End of self-consistent calculation

     Convergence has been achieved 


     Representation #   4 mode #   4

     Self-consistent Calculation

      iter #   1 total cpu time :   115.8 secs   av.it.:   6.3
      thresh= 1.000E-02 alpha_mix =  0.700 |ddv_scf|^2 =  4.531E-06

      iter #   2 total cpu time :   117.5 secs   av.it.:  10.6
      thresh= 2.129E-04 alpha_mix =  0.700 |ddv_scf|^2 =  8.805E-06

      iter #   3 total cpu time :   118.9 secs   av.it.:   9.6
      thresh= 2.967E-04 alpha_mix =  0.700 |ddv_scf|^2 =  1.545E-07

      iter #   4 total cpu time :   120.5 secs   av.it.:   9.9
      thresh= 3.930E-05 alpha_mix =  0.700 |ddv_scf|^2 =  7.812E-10

      iter #   5 total cpu time :   122.1 secs   av.it.:  10.4
      thresh= 2.795E-06 alpha_mix =  0.700 |ddv_scf|^2 =  1.933E-10

      iter #   6 total cpu time :   124.6 secs   av.it.:  10.2
      thresh= 1.390E-06 alpha_mix =  0.700 |ddv_scf|^2 =  5.378E-12

      iter #   7 total cpu time :   126.3 secs   av.it.:  10.6
      thresh= 2.319E-07 alpha_mix =  0.700 |ddv_scf|^2 =  2.506E-13

      iter #   8 total cpu time :   128.3 secs   av.it.:  10.5
      thresh= 5.006E-08 alpha_mix =  0.700 |ddv_scf|^2 =  1.733E-14

      iter #   9 total cpu time :   130.1 secs   av.it.:  10.3
      thresh= 1.316E-08 alpha_mix =  0.700 |ddv_scf|^2 =  9.717E-15

      iter #  10 total cpu time :   131.5 secs   av.it.:   9.8
      thresh= 9.858E-09 alpha_mix =  0.700 |ddv_scf|^2 =  6.095E-16

     End of self-consistent calculation

     Convergence has been achieved 


     Representation #   5 mode #   5

     Self-consistent Calculation

      iter #   1 total cpu time :   133.2 secs   av.it.:   6.0
      thresh= 1.000E-02 alpha_mix =  0.700 |ddv_scf|^2 =  6.809E-07

      iter #   2 total cpu time :   134.9 secs   av.it.:  10.3
      thresh= 8.251E-05 alpha_mix =  0.700 |ddv_scf|^2 =  1.580E-07

      iter #   3 total cpu time :   136.4 secs   av.it.:  10.0
      thresh= 3.975E-05 alpha_mix =  0.700 |ddv_scf|^2 =  3.437E-10

      iter #   4 total cpu time :   137.9 secs   av.it.:  10.3
      thresh= 1.854E-06 alpha_mix =  0.700 |ddv_scf|^2 =  7.464E-13

      iter #   5 total cpu time :   139.5 secs   av.it.:  10.4
      thresh= 8.640E-08 alpha_mix =  0.700 |ddv_scf|^2 =  1.217E-14

      iter #   6 total cpu time :   141.0 secs   av.it.:  10.4
      thresh= 1.103E-08 alpha_mix =  0.700 |ddv_scf|^2 =  1.911E-16

     End of self-consistent calculation

     Convergence has been achieved 


     Representation #   6 mode #   6

     Self-consistent Calculation

      iter #   1 total cpu time :   142.2 secs   av.it.:   6.0
      thresh= 1.000E-02 alpha_mix =  0.700 |ddv_scf|^2 =  6.809E-07

      iter #   2 total cpu time :   143.7 secs   av.it.:  10.3
      thresh= 8.251E-05 alpha_mix =  0.700 |ddv_scf|^2 =  1.580E-07

      iter #   3 total cpu time :   145.8 secs   av.it.:  10.0
      thresh= 3.975E-05 alpha_mix =  0.700 |ddv_scf|^2 =  3.436E-10

      iter #   4 total cpu time :   147.6 secs   av.it.:  10.3
      thresh= 1.854E-06 alpha_mix =  0.700 |ddv_scf|^2 =  7.465E-13

      iter #   5 total cpu time :   149.5 secs   av.it.:  10.4
      thresh= 8.640E-08 alpha_mix =  0.700 |ddv_scf|^2 =  1.218E-14

      iter #   6 total cpu time :   151.1 secs   av.it.:  10.4
      thresh= 1.104E-08 alpha_mix =  0.700 |ddv_scf|^2 =  1.912E-16

     End of self-consistent calculation

     Convergence has been achieved 
 
     Number of q in the star =   24
     List of q in the star:
          1   0.833333333  -0.166666667   0.833333333
          2   0.833333333  -0.166666667  -0.833333333
          3  -0.833333333  -0.166666667   0.833333333
          4  -0.833333333  -0.166666667  -0.833333333
          5  -0.833333333   0.166666667  -0.833333333
          6  -0.833333333   0.166666667   0.833333333
          7   0.833333333   0.166666667   0.833333333
          8   0.833333333   0.166666667  -0.833333333
          9  -0.166666667   0.833333333   0.833333333
         10   0.166666667   0.833333333  -0.833333333
         11  -0.166666667  -0.833333333  -0.833333333
         12  -0.166666667   0.833333333  -0.833333333
         13   0.833333333   0.833333333  -0.166666667
         14   0.833333333  -0.833333333   0.166666667
         15  -0.833333333  -0.833333333  -0.166666667
         16  -0.833333333   0.833333333   0.166666667
         17   0.166666667  -0.833333333   0.833333333
         18  -0.833333333   0.833333333  -0.166666667
         19   0.166666667   0.833333333   0.833333333
         20  -0.166666667  -0.833333333   0.833333333
         21  -0.833333333  -0.833333333   0.166666667
         22   0.833333333   0.833333333   0.166666667
         23   0.166666667  -0.833333333  -0.833333333
         24   0.833333333  -0.833333333  -0.166666667

     Diagonalizing the dynamical matrix

     q = (    0.833333333  -0.166666667   0.833333333 ) 

 **************************************************************************
     freq (    1) =       4.143143 [THz] =     138.200386 [cm-1]
     freq (    2) =       5.444502 [THz] =     181.609032 [cm-1]
     freq (    3) =      10.258677 [THz] =     342.192636 [cm-1]
     freq (    4) =      12.504328 [THz] =     417.099477 [cm-1]
     freq (    5) =      13.907226 [THz] =     463.895118 [cm-1]
     freq (    6) =      14.207679 [THz] =     473.917162 [cm-1]
 **************************************************************************

     Mode symmetry, C_s (m)     point group:

     freq (   1-   1) =        138.2  [cm-1]   --> A''                
     freq (   2-   2) =        181.6  [cm-1]   --> A'                 
     freq (   3-   3) =        342.2  [cm-1]   --> A'                 
     freq (   4-   4) =        417.1  [cm-1]   --> A'                 
     freq (   5-   5) =        463.9  [cm-1]   --> A''                
     freq (   6-   6) =        473.9  [cm-1]   --> A'                 

     Calculation of q =    0.6666667  -0.0000000   0.6666667
 
     Parallelization info
     --------------------
     sticks:   dense  smooth     PW     G-vecs:    dense   smooth      PW
     Min         125     125     43                 2608     2608     513
     Max         126     126     44                 2611     2611     514
     Sum        1003    1003    349                20875    20875    4111
 
     Using Slab Decomposition
 

     Title: 
     default                                                                    


     bravais-lattice index     =            2
     lattice parameter (alat)  =      10.1899  a.u.
     unit-cell volume          =     264.5151 (a.u.)^3
     number of atoms/cell      =            2
     number of atomic types    =            1
     number of electrons       =         8.00
     number of Kohn-Sham states=            4
     kinetic-energy cutoff     =      70.0000  Ry
     charge density cutoff     =     280.0000  Ry
     Exchange-correlation= PW
                           (   1   4   0   0   0   0   0)

     celldm(1)=  10.189905  celldm(2)=   0.000000  celldm(3)=   0.000000
     celldm(4)=   0.000000  celldm(5)=   0.000000  celldm(6)=   0.000000

     crystal axes: (cart. coord. in units of alat)
               a(1) = (  -0.500000   0.000000   0.500000 )  
               a(2) = (   0.000000   0.500000   0.500000 )  
               a(3) = (  -0.500000   0.500000   0.000000 )  

     reciprocal axes: (cart. coord. in units 2 pi/alat)
               b(1) = ( -1.000000 -1.000000  1.000000 )  
               b(2) = (  1.000000  1.000000  1.000000 )  
               b(3) = ( -1.000000  1.000000 -1.000000 )  


     PseudoPot. # 1 for Si read from file:
     /fastscratch/tsievers/si_ph_benchmark_images//pseudos/Si.nc.UPF
     MD5 check sum: 9e2d726316af3d4752eea8ab0afbb951
     Pseudo is Norm-conserving + core correction, Zval =  4.0
     Generated using ONCVPSP code by D. R. Hamann
     Using radial grid of 1510 points,  6 beta functions with: 
                l(1) =   0
                l(2) =   0
                l(3) =   1
                l(4) =   1
                l(5) =   2
                l(6) =   2

     atomic species   valence    mass     pseudopotential
        Si             4.00    28.08550     Si( 1.00)

     48 Sym. Ops., with inversion, found



   Cartesian axes

     site n.     atom                  positions (alat units)
         1           Si  tau(   1) = (   0.0000000   0.0000000   0.0000000  )
         2           Si  tau(   2) = (  -0.2500000   0.2500000   0.2500000  )

     number of k points=   468

     Number of k-points >= 100: set verbosity='high' to print them.

     Dense  grid:    20875 G-vectors     FFT dimensions: (  40,  40,  40)

     Estimated max dynamical RAM per process >       2.66 MB

     Estimated total dynamical RAM >     106.46 MB

     The potential is recalculated from file :
     /fastscratch/tsievers/QE_TMP_DIR/_ph1/si_ph_bench_nimages_2_n_procs_80_2.save/charge-density

     Starting wfcs are    8 atomic wfcs

     Band Structure Calculation
     Davidson diagonalization with overlap

     ethr =  1.25E-10,  avg # of iterations = 12.8

     total cpu time spent up to now is       11.4 secs

     End of band structure calculation

     Number of k-points >= 100: set verbosity='high' to print the bands.

     highest occupied level (ev):     6.1106

     Writing config to output data dir /fastscratch/tsievers/QE_TMP_DIR/_ph1/si_ph_bench_nimages_2_n_procs_80_2.save/

     default                                                                    

     bravais-lattice index     =            2
     lattice parameter (alat)  =      10.1899  a.u.
     unit-cell volume          =     264.5151 (a.u.)^3
     number of atoms/cell      =            2
     number of atomic types    =            1
     kinetic-energy cut-off    =      70.0000  Ry
     charge density cut-off    =     280.0000  Ry
     convergence threshold     =      1.0E-15
     beta                      =       0.7000
     number of iterations used =            4
     Exchange-correlation= PW
                           (   1   4   0   0   0   0   0)


     celldm(1)=   10.18990  celldm(2)=    0.00000  celldm(3)=    0.00000
     celldm(4)=    0.00000  celldm(5)=    0.00000  celldm(6)=    0.00000

     crystal axes: (cart. coord. in units of alat)
               a(1) = ( -0.5000  0.0000  0.5000 )  
               a(2) = (  0.0000  0.5000  0.5000 )  
               a(3) = ( -0.5000  0.5000  0.0000 )  

     reciprocal axes: (cart. coord. in units 2 pi/alat)
               b(1) = ( -1.0000 -1.0000  1.0000 )  
               b(2) = (  1.0000  1.0000  1.0000 )  
               b(3) = ( -1.0000  1.0000 -1.0000 )  


     Atoms inside the unit cell: 

     Cartesian axes

     site n.  atom      mass           positions (alat units)
        1     Si  28.0855   tau(    1) = (    0.00000    0.00000    0.00000  )
        2     Si  28.0855   tau(    2) = (   -0.25000    0.25000    0.25000  )

     Computing dynamical matrix for 
                    q = (   0.6666667  -0.0000000   0.6666667 )
 
      4 Sym.Ops. (no q -> -q+G )


     G cutoff =  736.4420  (   2611 G-vectors)     FFT grid: ( 40, 40, 40)
     number of k points=   468

     PseudoPot. # 1 for Si read from file:
     /fastscratch/tsievers/si_ph_benchmark_images//pseudos/Si.nc.UPF
     MD5 check sum: 9e2d726316af3d4752eea8ab0afbb951
     Pseudo is Norm-conserving + core correction, Zval =  4.0
     Generated using ONCVPSP code by D. R. Hamann
     Using radial grid of 1510 points,  6 beta functions with: 
                l(1) =   0
                l(2) =   0
                l(3) =   1
                l(4) =   1
                l(5) =   2
                l(6) =   2

     Mode symmetry, C_2v (mm2)  point group:


     Atomic displacements:
     There are    6 irreducible representations

     Representation     1      1 modes -  To be done

     Representation     2      1 modes -  To be done

     Representation     3      1 modes -  To be done

     Representation     4      1 modes -  To be done

     Representation     5      1 modes -  To be done

     Representation     6      1 modes -  To be done



     Alpha used in Ewald sum =   2.8000
     PHONON       :   2m 0.50s CPU   2m36.90s WALL



     Representation #   1 mode #   1

     Self-consistent Calculation

      iter #   1 total cpu time :   158.5 secs   av.it.:   6.3
      thresh= 1.000E-02 alpha_mix =  0.700 |ddv_scf|^2 =  4.556E-06

      iter #   2 total cpu time :   159.9 secs   av.it.:  10.5
      thresh= 2.134E-04 alpha_mix =  0.700 |ddv_scf|^2 =  6.181E-06

      iter #   3 total cpu time :   161.3 secs   av.it.:   9.7
      thresh= 2.486E-04 alpha_mix =  0.700 |ddv_scf|^2 =  8.667E-08

      iter #   4 total cpu time :   162.5 secs   av.it.:   9.8
      thresh= 2.944E-05 alpha_mix =  0.700 |ddv_scf|^2 =  3.358E-10

      iter #   5 total cpu time :   164.3 secs   av.it.:  10.3
      thresh= 1.832E-06 alpha_mix =  0.700 |ddv_scf|^2 =  2.600E-12

      iter #   6 total cpu time :   165.5 secs   av.it.:  10.3
      thresh= 1.612E-07 alpha_mix =  0.700 |ddv_scf|^2 =  2.765E-14

      iter #   7 total cpu time :   166.8 secs   av.it.:  10.5
      thresh= 1.663E-08 alpha_mix =  0.700 |ddv_scf|^2 =  4.113E-15

      iter #   8 total cpu time :   167.9 secs   av.it.:  10.1
      thresh= 6.413E-09 alpha_mix =  0.700 |ddv_scf|^2 =  2.905E-15

      iter #   9 total cpu time :   168.6 secs   av.it.:   9.6
      thresh= 5.390E-09 alpha_mix =  0.700 |ddv_scf|^2 =  1.220E-17

     End of self-consistent calculation

     Convergence has been achieved 


     Representation #   2 mode #   2

     Self-consistent Calculation

      iter #   1 total cpu time :   169.3 secs   av.it.:   6.6
      thresh= 1.000E-02 alpha_mix =  0.700 |ddv_scf|^2 =  1.490E-05

      iter #   2 total cpu time :   170.1 secs   av.it.:  10.4
      thresh= 3.859E-04 alpha_mix =  0.700 |ddv_scf|^2 =  2.600E-05

      iter #   3 total cpu time :   170.9 secs   av.it.:   9.5
      thresh= 5.099E-04 alpha_mix =  0.700 |ddv_scf|^2 =  1.122E-07

      iter #   4 total cpu time :   171.7 secs   av.it.:   9.8
      thresh= 3.350E-05 alpha_mix =  0.700 |ddv_scf|^2 =  5.454E-10

      iter #   5 total cpu time :   172.5 secs   av.it.:  10.0
      thresh= 2.335E-06 alpha_mix =  0.700 |ddv_scf|^2 =  5.763E-12

      iter #   6 total cpu time :   173.2 secs   av.it.:  10.1
      thresh= 2.401E-07 alpha_mix =  0.700 |ddv_scf|^2 =  1.246E-13

      iter #   7 total cpu time :   174.1 secs   av.it.:  10.0
      thresh= 3.529E-08 alpha_mix =  0.700 |ddv_scf|^2 =  1.249E-15

      iter #   8 total cpu time :   174.8 secs   av.it.:  10.4
      thresh= 3.534E-09 alpha_mix =  0.700 |ddv_scf|^2 =  7.067E-16

     End of self-consistent calculation

     Convergence has been achieved 


     Representation #   3 mode #   3

     Self-consistent Calculation

      iter #   1 total cpu time :   175.8 secs   av.it.:   6.0
      thresh= 1.000E-02 alpha_mix =  0.700 |ddv_scf|^2 =  9.601E-07

      iter #   2 total cpu time :   176.7 secs   av.it.:  10.3
      thresh= 9.798E-05 alpha_mix =  0.700 |ddv_scf|^2 =  1.742E-07

      iter #   3 total cpu time :   177.5 secs   av.it.:  10.0
      thresh= 4.173E-05 alpha_mix =  0.700 |ddv_scf|^2 =  3.661E-10

      iter #   4 total cpu time :   178.4 secs   av.it.:  10.1
      thresh= 1.913E-06 alpha_mix =  0.700 |ddv_scf|^2 =  2.625E-13

      iter #   5 total cpu time :   179.3 secs   av.it.:  10.2
      thresh= 5.123E-08 alpha_mix =  0.700 |ddv_scf|^2 =  8.751E-15

      iter #   6 total cpu time :   180.4 secs   av.it.:  10.1
      thresh= 9.355E-09 alpha_mix =  0.700 |ddv_scf|^2 =  7.745E-17

     End of self-consistent calculation

     Convergence has been achieved 


     Representation #   4 mode #   4

     Self-consistent Calculation

      iter #   1 total cpu time :   181.3 secs   av.it.:   5.2
      thresh= 1.000E-02 alpha_mix =  0.700 |ddv_scf|^2 =  2.013E-08

      iter #   2 total cpu time :   182.1 secs   av.it.:  10.1
      thresh= 1.419E-05 alpha_mix =  0.700 |ddv_scf|^2 =  9.534E-10

      iter #   3 total cpu time :   182.9 secs   av.it.:  10.2
      thresh= 3.088E-06 alpha_mix =  0.700 |ddv_scf|^2 =  6.690E-12

      iter #   4 total cpu time :   183.7 secs   av.it.:   9.9
      thresh= 2.586E-07 alpha_mix =  0.700 |ddv_scf|^2 =  1.367E-13

      iter #   5 total cpu time :   184.6 secs   av.it.:  10.1
      thresh= 3.697E-08 alpha_mix =  0.700 |ddv_scf|^2 =  1.111E-15

      iter #   6 total cpu time :   185.4 secs   av.it.:  10.2
      thresh= 3.334E-09 alpha_mix =  0.700 |ddv_scf|^2 =  2.928E-18

     End of self-consistent calculation

     Convergence has been achieved 


     Representation #   5 mode #   5

     Self-consistent Calculation

      iter #   1 total cpu time :   186.1 secs   av.it.:   5.3
      thresh= 1.000E-02 alpha_mix =  0.700 |ddv_scf|^2 =  1.234E-07

      iter #   2 total cpu time :   186.9 secs   av.it.:  10.6
      thresh= 3.512E-05 alpha_mix =  0.700 |ddv_scf|^2 =  6.861E-08

      iter #   3 total cpu time :   187.7 secs   av.it.:  10.0
      thresh= 2.619E-05 alpha_mix =  0.700 |ddv_scf|^2 =  4.392E-09

      iter #   4 total cpu time :   188.5 secs   av.it.:  10.0
      thresh= 6.627E-06 alpha_mix =  0.700 |ddv_scf|^2 =  5.530E-11

      iter #   5 total cpu time :   189.3 secs   av.it.:  10.4
      thresh= 7.436E-07 alpha_mix =  0.700 |ddv_scf|^2 =  7.589E-13

      iter #   6 total cpu time :   190.7 secs   av.it.:  10.3
      thresh= 8.712E-08 alpha_mix =  0.700 |ddv_scf|^2 =  1.090E-15

      iter #   7 total cpu time :   191.4 secs   av.it.:  10.3
      thresh= 3.302E-09 alpha_mix =  0.700 |ddv_scf|^2 =  4.290E-17

     End of self-consistent calculation

     Convergence has been achieved 


     Representation #   6 mode #   6

     Self-consistent Calculation

      iter #   1 total cpu time :   192.4 secs   av.it.:   6.4
      thresh= 1.000E-02 alpha_mix =  0.700 |ddv_scf|^2 =  6.308E-06

      iter #   2 total cpu time :   193.2 secs   av.it.:  10.4
      thresh= 2.512E-04 alpha_mix =  0.700 |ddv_scf|^2 =  8.090E-06

      iter #   3 total cpu time :   194.1 secs   av.it.:   9.7
      thresh= 2.844E-04 alpha_mix =  0.700 |ddv_scf|^2 =  1.664E-09

      iter #   4 total cpu time :   194.9 secs   av.it.:  10.2
      thresh= 4.079E-06 alpha_mix =  0.700 |ddv_scf|^2 =  7.693E-11

      iter #   5 total cpu time :   195.8 secs   av.it.:  10.4
      thresh= 8.771E-07 alpha_mix =  0.700 |ddv_scf|^2 =  3.535E-13

      iter #   6 total cpu time :   196.6 secs   av.it.:  10.3
      thresh= 5.945E-08 alpha_mix =  0.700 |ddv_scf|^2 =  1.275E-14

      iter #   7 total cpu time :   197.4 secs   av.it.:  10.2
      thresh= 1.129E-08 alpha_mix =  0.700 |ddv_scf|^2 =  4.103E-17

     End of self-consistent calculation

     Convergence has been achieved 
 
     Number of q in the star =   12
     List of q in the star:
          1   0.666666667   0.000000000   0.666666667
          2  -0.666666667   0.000000000  -0.666666667
          3  -0.666666667   0.000000000   0.666666667
          4   0.666666667   0.000000000  -0.666666667
          5   0.000000000   0.666666667   0.666666667
          6   0.000000000   0.666666667  -0.666666667
          7   0.000000000  -0.666666667  -0.666666667
          8   0.666666667   0.666666667   0.000000000
          9   0.666666667  -0.666666667   0.000000000
         10  -0.666666667  -0.666666667   0.000000000
         11  -0.666666667   0.666666667   0.000000000
         12   0.000000000  -0.666666667   0.666666667

     Diagonalizing the dynamical matrix

     q = (    0.666666667  -0.000000000   0.666666667 ) 

 **************************************************************************
     freq (    1) =       4.251770 [THz] =     141.823794 [cm-1]
     freq (    2) =       6.420741 [THz] =     214.172882 [cm-1]
     freq (    3) =      10.134208 [THz] =     338.040795 [cm-1]
     freq (    4) =      11.355076 [THz] =     378.764574 [cm-1]
     freq (    5) =      13.957394 [THz] =     465.568549 [cm-1]
     freq (    6) =      14.514322 [THz] =     484.145675 [cm-1]
 **************************************************************************

     Mode symmetry, C_2v (mm2)  point group:

     freq (   1-   1) =        141.8  [cm-1]   --> B_1  D_3  S_3      
     freq (   2-   2) =        214.2  [cm-1]   --> B_2  D_4  S_4      
     freq (   3-   3) =        338.0  [cm-1]   --> A_1  D_1  S_1      
     freq (   4-   4) =        378.8  [cm-1]   --> B_2  D_4  S_4      
     freq (   5-   5) =        465.6  [cm-1]   --> A_2  D_2  S_2      
     freq (   6-   6) =        484.1  [cm-1]   --> A_1  D_1  S_1      

     Calculation of q =    0.0000000  -1.0000000   0.0000000
 
     Parallelization info
     --------------------
     sticks:   dense  smooth     PW     G-vecs:    dense   smooth      PW
     Min         125     125     42                 2608     2608     501
     Max         126     126     43                 2611     2611     503
     Sum        1003    1003    337                20875    20875    4015
 
     Using Slab Decomposition
 

     Title: 
     default                                                                    


     bravais-lattice index     =            2
     lattice parameter (alat)  =      10.1899  a.u.
     unit-cell volume          =     264.5151 (a.u.)^3
     number of atoms/cell      =            2
     number of atomic types    =            1
     number of electrons       =         8.00
     number of Kohn-Sham states=            4
     kinetic-energy cutoff     =      70.0000  Ry
     charge density cutoff     =     280.0000  Ry
     Exchange-correlation= PW
                           (   1   4   0   0   0   0   0)

     celldm(1)=  10.189905  celldm(2)=   0.000000  celldm(3)=   0.000000
     celldm(4)=   0.000000  celldm(5)=   0.000000  celldm(6)=   0.000000

     crystal axes: (cart. coord. in units of alat)
               a(1) = (  -0.500000   0.000000   0.500000 )  
               a(2) = (   0.000000   0.500000   0.500000 )  
               a(3) = (  -0.500000   0.500000   0.000000 )  

     reciprocal axes: (cart. coord. in units 2 pi/alat)
               b(1) = ( -1.000000 -1.000000  1.000000 )  
               b(2) = (  1.000000  1.000000  1.000000 )  
               b(3) = ( -1.000000  1.000000 -1.000000 )  


     PseudoPot. # 1 for Si read from file:
     /fastscratch/tsievers/si_ph_benchmark_images//pseudos/Si.nc.UPF
     MD5 check sum: 9e2d726316af3d4752eea8ab0afbb951
     Pseudo is Norm-conserving + core correction, Zval =  4.0
     Generated using ONCVPSP code by D. R. Hamann
     Using radial grid of 1510 points,  6 beta functions with: 
                l(1) =   0
                l(2) =   0
                l(3) =   1
                l(4) =   1
                l(5) =   2
                l(6) =   2

     atomic species   valence    mass     pseudopotential
        Si             4.00    28.08550     Si( 1.00)

     48 Sym. Ops., with inversion, found



   Cartesian axes

     site n.     atom                  positions (alat units)
         1           Si  tau(   1) = (   0.0000000   0.0000000   0.0000000  )
         2           Si  tau(   2) = (  -0.2500000   0.2500000   0.2500000  )

     number of k points=   126

     Number of k-points >= 100: set verbosity='high' to print them.

     Dense  grid:    20875 G-vectors     FFT dimensions: (  40,  40,  40)

     Estimated max dynamical RAM per process >       2.66 MB

     Estimated total dynamical RAM >     106.56 MB

     The potential is recalculated from file :
     /fastscratch/tsievers/QE_TMP_DIR/_ph1/si_ph_bench_nimages_2_n_procs_80_2.save/charge-density

     Starting wfcs are    8 atomic wfcs

     Band Structure Calculation
     Davidson diagonalization with overlap

     ethr =  1.25E-10,  avg # of iterations = 12.8

     total cpu time spent up to now is       13.5 secs

     End of band structure calculation

     Number of k-points >= 100: set verbosity='high' to print the bands.

     highest occupied level (ev):     6.1106

     Writing config to output data dir /fastscratch/tsievers/QE_TMP_DIR/_ph1/si_ph_bench_nimages_2_n_procs_80_2.save/

     default                                                                    

     bravais-lattice index     =            2
     lattice parameter (alat)  =      10.1899  a.u.
     unit-cell volume          =     264.5151 (a.u.)^3
     number of atoms/cell      =            2
     number of atomic types    =            1
     kinetic-energy cut-off    =      70.0000  Ry
     charge density cut-off    =     280.0000  Ry
     convergence threshold     =      1.0E-15
     beta                      =       0.7000
     number of iterations used =            4
     Exchange-correlation= PW
                           (   1   4   0   0   0   0   0)


     celldm(1)=   10.18990  celldm(2)=    0.00000  celldm(3)=    0.00000
     celldm(4)=    0.00000  celldm(5)=    0.00000  celldm(6)=    0.00000

     crystal axes: (cart. coord. in units of alat)
               a(1) = ( -0.5000  0.0000  0.5000 )  
               a(2) = (  0.0000  0.5000  0.5000 )  
               a(3) = ( -0.5000  0.5000  0.0000 )  

     reciprocal axes: (cart. coord. in units 2 pi/alat)
               b(1) = ( -1.0000 -1.0000  1.0000 )  
               b(2) = (  1.0000  1.0000  1.0000 )  
               b(3) = ( -1.0000  1.0000 -1.0000 )  


     Atoms inside the unit cell: 

     Cartesian axes

     site n.  atom      mass           positions (alat units)
        1     Si  28.0855   tau(    1) = (    0.00000    0.00000    0.00000  )
        2     Si  28.0855   tau(    2) = (   -0.25000    0.25000    0.25000  )

     Computing dynamical matrix for 
                    q = (   0.0000000  -1.0000000   0.0000000 )
 
     17 Sym.Ops. (with q -> -q+G )


     G cutoff =  736.4420  (   2611 G-vectors)     FFT grid: ( 40, 40, 40)
     number of k points=   126

     PseudoPot. # 1 for Si read from file:
     /fastscratch/tsievers/si_ph_benchmark_images//pseudos/Si.nc.UPF
     MD5 check sum: 9e2d726316af3d4752eea8ab0afbb951
     Pseudo is Norm-conserving + core correction, Zval =  4.0
     Generated using ONCVPSP code by D. R. Hamann
     Using radial grid of 1510 points,  6 beta functions with: 
                l(1) =   0
                l(2) =   0
                l(3) =   1
                l(4) =   1
                l(5) =   2
                l(6) =   2


     Atomic displacements:
     There are    3 irreducible representations

     Representation     1      2 modes -  To be done

     Representation     2      2 modes -  To be done

     Representation     3      2 modes -  To be done



     Alpha used in Ewald sum =   2.8000
     PHONON       :   2m36.89s CPU   3m21.17s WALL



     Representation #   1 modes #   1   2

     Self-consistent Calculation

      iter #   1 total cpu time :   201.6 secs   av.it.:   5.3
      thresh= 1.000E-02 alpha_mix =  0.700 |ddv_scf|^2 =  3.545E-09

      iter #   2 total cpu time :   202.3 secs   av.it.:  11.2
      thresh= 5.954E-06 alpha_mix =  0.700 |ddv_scf|^2 =  1.954E-10

      iter #   3 total cpu time :   203.0 secs   av.it.:  11.3
      thresh= 1.398E-06 alpha_mix =  0.700 |ddv_scf|^2 =  1.324E-12

      iter #   4 total cpu time :   203.7 secs   av.it.:  10.9
      thresh= 1.151E-07 alpha_mix =  0.700 |ddv_scf|^2 =  2.007E-14

      iter #   5 total cpu time :   204.2 secs   av.it.:  11.2
      thresh= 1.417E-08 alpha_mix =  0.700 |ddv_scf|^2 =  3.243E-17

     End of self-consistent calculation

     Convergence has been achieved 


     Representation #   2 modes #   3   4

     Self-consistent Calculation

      iter #   1 total cpu time :   204.8 secs   av.it.:   6.5
      thresh= 1.000E-02 alpha_mix =  0.700 |ddv_scf|^2 =  2.282E-06

      iter #   2 total cpu time :   205.5 secs   av.it.:  11.1
      thresh= 1.511E-04 alpha_mix =  0.700 |ddv_scf|^2 =  3.234E-06

      iter #   3 total cpu time :   206.2 secs   av.it.:  10.4
      thresh= 1.798E-04 alpha_mix =  0.700 |ddv_scf|^2 =  5.613E-10

      iter #   4 total cpu time :   206.8 secs   av.it.:  10.9
      thresh= 2.369E-06 alpha_mix =  0.700 |ddv_scf|^2 =  2.472E-11

      iter #   5 total cpu time :   207.5 secs   av.it.:  11.1
      thresh= 4.971E-07 alpha_mix =  0.700 |ddv_scf|^2 =  2.168E-13

      iter #   6 total cpu time :   208.2 secs   av.it.:  11.0
      thresh= 4.656E-08 alpha_mix =  0.700 |ddv_scf|^2 =  5.054E-15

      iter #   7 total cpu time :   208.7 secs   av.it.:  10.9
      thresh= 7.109E-09 alpha_mix =  0.700 |ddv_scf|^2 =  5.034E-17

     End of self-consistent calculation

     Convergence has been achieved 


     Representation #   3 modes #   5   6

     Self-consistent Calculation

      iter #   1 total cpu time :   209.5 secs   av.it.:   6.4
      thresh= 1.000E-02 alpha_mix =  0.700 |ddv_scf|^2 =  4.201E-07

      iter #   2 total cpu time :   210.2 secs   av.it.:  11.4
      thresh= 6.481E-05 alpha_mix =  0.700 |ddv_scf|^2 =  1.163E-07

      iter #   3 total cpu time :   210.8 secs   av.it.:  11.1
      thresh= 3.410E-05 alpha_mix =  0.700 |ddv_scf|^2 =  1.245E-10

      iter #   4 total cpu time :   211.6 secs   av.it.:  11.2
      thresh= 1.116E-06 alpha_mix =  0.700 |ddv_scf|^2 =  1.018E-13

      iter #   5 total cpu time :   212.4 secs   av.it.:  11.1
      thresh= 3.191E-08 alpha_mix =  0.700 |ddv_scf|^2 =  5.393E-15

      iter #   6 total cpu time :   212.9 secs   av.it.:  11.1
      thresh= 7.343E-09 alpha_mix =  0.700 |ddv_scf|^2 =  9.089E-18

     End of self-consistent calculation

     Convergence has been achieved 
 
     Number of q in the star =    3
     List of q in the star:
          1   0.000000000  -1.000000000   0.000000000
          2  -1.000000000   0.000000000   0.000000000
          3   0.000000000   0.000000000  -1.000000000

     Diagonalizing the dynamical matrix

     q = (    0.000000000  -1.000000000   0.000000000 ) 

 **************************************************************************
     freq (    1) =       4.101511 [THz] =     136.811687 [cm-1]
     freq (    2) =       4.101511 [THz] =     136.811687 [cm-1]
     freq (    3) =      12.261792 [THz] =     409.009371 [cm-1]
     freq (    4) =      12.261792 [THz] =     409.009371 [cm-1]
     freq (    5) =      13.855536 [THz] =     462.170939 [cm-1]
     freq (    6) =      13.855536 [THz] =     462.170939 [cm-1]
 **************************************************************************

     Calculation of q =    0.6666667  -0.3333333   1.0000000
 
     Parallelization info
     --------------------
     sticks:   dense  smooth     PW     G-vecs:    dense   smooth      PW
     Min         125     125     45                 2608     2608     558
     Max         126     126     46                 2611     2611     560
     Sum        1003    1003    361                20875    20875    4477
 
     Using Slab Decomposition
 

     Title: 
     default                                                                    


     bravais-lattice index     =            2
     lattice parameter (alat)  =      10.1899  a.u.
     unit-cell volume          =     264.5151 (a.u.)^3
     number of atoms/cell      =            2
     number of atomic types    =            1
     number of electrons       =         8.00
     number of Kohn-Sham states=            4
     kinetic-energy cutoff     =      70.0000  Ry
     charge density cutoff     =     280.0000  Ry
     Exchange-correlation= PW
                           (   1   4   0   0   0   0   0)

     celldm(1)=  10.189905  celldm(2)=   0.000000  celldm(3)=   0.000000
     celldm(4)=   0.000000  celldm(5)=   0.000000  celldm(6)=   0.000000

     crystal axes: (cart. coord. in units of alat)
               a(1) = (  -0.500000   0.000000   0.500000 )  
               a(2) = (   0.000000   0.500000   0.500000 )  
               a(3) = (  -0.500000   0.500000   0.000000 )  

     reciprocal axes: (cart. coord. in units 2 pi/alat)
               b(1) = ( -1.000000 -1.000000  1.000000 )  
               b(2) = (  1.000000  1.000000  1.000000 )  
               b(3) = ( -1.000000  1.000000 -1.000000 )  


     PseudoPot. # 1 for Si read from file:
     /fastscratch/tsievers/si_ph_benchmark_images//pseudos/Si.nc.UPF
     MD5 check sum: 9e2d726316af3d4752eea8ab0afbb951
     Pseudo is Norm-conserving + core correction, Zval =  4.0
     Generated using ONCVPSP code by D. R. Hamann
     Using radial grid of 1510 points,  6 beta functions with: 
                l(1) =   0
                l(2) =   0
                l(3) =   1
                l(4) =   1
                l(5) =   2
                l(6) =   2

     atomic species   valence    mass     pseudopotential
        Si             4.00    28.08550     Si( 1.00)

     48 Sym. Ops., with inversion, found



   Cartesian axes

     site n.     atom                  positions (alat units)
         1           Si  tau(   1) = (   0.0000000   0.0000000   0.0000000  )
         2           Si  tau(   2) = (  -0.2500000   0.2500000   0.2500000  )

     number of k points=   864

     Number of k-points >= 100: set verbosity='high' to print them.

     Dense  grid:    20875 G-vectors     FFT dimensions: (  40,  40,  40)

     Estimated max dynamical RAM per process >       2.68 MB

     Estimated total dynamical RAM >     107.07 MB

     The potential is recalculated from file :
     /fastscratch/tsievers/QE_TMP_DIR/_ph1/si_ph_bench_nimages_2_n_procs_80_2.save/charge-density

     Starting wfcs are    8 atomic wfcs

     Band Structure Calculation
     Davidson diagonalization with overlap

     ethr =  1.25E-10,  avg # of iterations = 12.8

     total cpu time spent up to now is       16.9 secs

     End of band structure calculation

     Number of k-points >= 100: set verbosity='high' to print the bands.

     highest occupied level (ev):     6.1106

     Writing config to output data dir /fastscratch/tsievers/QE_TMP_DIR/_ph1/si_ph_bench_nimages_2_n_procs_80_2.save/

     default                                                                    

     bravais-lattice index     =            2
     lattice parameter (alat)  =      10.1899  a.u.
     unit-cell volume          =     264.5151 (a.u.)^3
     number of atoms/cell      =            2
     number of atomic types    =            1
     kinetic-energy cut-off    =      70.0000  Ry
     charge density cut-off    =     280.0000  Ry
     convergence threshold     =      1.0E-15
     beta                      =       0.7000
     number of iterations used =            4
     Exchange-correlation= PW
                           (   1   4   0   0   0   0   0)


     celldm(1)=   10.18990  celldm(2)=    0.00000  celldm(3)=    0.00000
     celldm(4)=    0.00000  celldm(5)=    0.00000  celldm(6)=    0.00000

     crystal axes: (cart. coord. in units of alat)
               a(1) = ( -0.5000  0.0000  0.5000 )  
               a(2) = (  0.0000  0.5000  0.5000 )  
               a(3) = ( -0.5000  0.5000  0.0000 )  

     reciprocal axes: (cart. coord. in units 2 pi/alat)
               b(1) = ( -1.0000 -1.0000  1.0000 )  
               b(2) = (  1.0000  1.0000  1.0000 )  
               b(3) = ( -1.0000  1.0000 -1.0000 )  


     Atoms inside the unit cell: 

     Cartesian axes

     site n.  atom      mass           positions (alat units)
        1     Si  28.0855   tau(    1) = (    0.00000    0.00000    0.00000  )
        2     Si  28.0855   tau(    2) = (   -0.25000    0.25000    0.25000  )

     Computing dynamical matrix for 
                    q = (   0.6666667  -0.3333333   1.0000000 )
 
      2 Sym.Ops. (no q -> -q+G )


     G cutoff =  736.4420  (   2611 G-vectors)     FFT grid: ( 40, 40, 40)
     number of k points=   864

     PseudoPot. # 1 for Si read from file:
     /fastscratch/tsievers/si_ph_benchmark_images//pseudos/Si.nc.UPF
     MD5 check sum: 9e2d726316af3d4752eea8ab0afbb951
     Pseudo is Norm-conserving + core correction, Zval =  4.0
     Generated using ONCVPSP code by D. R. Hamann
     Using radial grid of 1510 points,  6 beta functions with: 
                l(1) =   0
                l(2) =   0
                l(3) =   1
                l(4) =   1
                l(5) =   2
                l(6) =   2


     Atomic displacements:
     There are    6 irreducible representations

     Representation     1      1 modes -  To be done

     Representation     2      1 modes -  To be done

     Representation     3      1 modes -  To be done

     Representation     4      1 modes -  To be done

     Representation     5      1 modes -  To be done

     Representation     6      1 modes -  To be done



     Alpha used in Ewald sum =   2.8000
     PHONON       :   2m48.71s CPU   3m37.89s WALL



     Representation #   1 mode #   1

     Self-consistent Calculation

      iter #   1 total cpu time :   218.9 secs   av.it.:   6.1
      thresh= 1.000E-02 alpha_mix =  0.700 |ddv_scf|^2 =  1.830E-06

      iter #   2 total cpu time :   220.3 secs   av.it.:  10.6
      thresh= 1.353E-04 alpha_mix =  0.700 |ddv_scf|^2 =  5.633E-06

      iter #   3 total cpu time :   221.6 secs   av.it.:   9.3
      thresh= 2.373E-04 alpha_mix =  0.700 |ddv_scf|^2 =  1.561E-07

      iter #   4 total cpu time :   222.9 secs   av.it.:   9.8
      thresh= 3.951E-05 alpha_mix =  0.700 |ddv_scf|^2 =  2.973E-10

      iter #   5 total cpu time :   226.4 secs   av.it.:  10.6
      thresh= 1.724E-06 alpha_mix =  0.700 |ddv_scf|^2 =  1.812E-11

      iter #   6 total cpu time :   229.0 secs   av.it.:  10.3
      thresh= 4.256E-07 alpha_mix =  0.700 |ddv_scf|^2 =  9.321E-14

      iter #   7 total cpu time :   230.6 secs   av.it.:  10.5
      thresh= 3.053E-08 alpha_mix =  0.700 |ddv_scf|^2 =  4.130E-15

      iter #   8 total cpu time :   233.5 secs   av.it.:  10.7
      thresh= 6.427E-09 alpha_mix =  0.700 |ddv_scf|^2 =  1.042E-15

      iter #   9 total cpu time :   234.8 secs   av.it.:   9.7
      thresh= 3.228E-09 alpha_mix =  0.700 |ddv_scf|^2 =  5.575E-16

     End of self-consistent calculation

     Convergence has been achieved 


     Representation #   2 mode #   2

     Self-consistent Calculation

      iter #   1 total cpu time :   238.9 secs   av.it.:   5.9
      thresh= 1.000E-02 alpha_mix =  0.700 |ddv_scf|^2 =  3.838E-07

      iter #   2 total cpu time :   240.3 secs   av.it.:  10.8
      thresh= 6.196E-05 alpha_mix =  0.700 |ddv_scf|^2 =  2.117E-07

      iter #   3 total cpu time :   241.7 secs   av.it.:  10.2
      thresh= 4.601E-05 alpha_mix =  0.700 |ddv_scf|^2 =  2.061E-09

      iter #   4 total cpu time :   243.0 secs   av.it.:  10.5
      thresh= 4.540E-06 alpha_mix =  0.700 |ddv_scf|^2 =  1.331E-10

      iter #   5 total cpu time :   244.8 secs   av.it.:  10.5
      thresh= 1.154E-06 alpha_mix =  0.700 |ddv_scf|^2 =  1.231E-12

      iter #   6 total cpu time :   246.2 secs   av.it.:  10.6
      thresh= 1.109E-07 alpha_mix =  0.700 |ddv_scf|^2 =  2.678E-14

      iter #   7 total cpu time :   247.6 secs   av.it.:  10.7
      thresh= 1.637E-08 alpha_mix =  0.700 |ddv_scf|^2 =  1.105E-15

      iter #   8 total cpu time :   248.9 secs   av.it.:  10.7
      thresh= 3.323E-09 alpha_mix =  0.700 |ddv_scf|^2 =  3.351E-17

     End of self-consistent calculation

     Convergence has been achieved 


     Representation #   3 mode #   3

     Self-consistent Calculation

      iter #   1 total cpu time :   250.6 secs   av.it.:   6.4
      thresh= 1.000E-02 alpha_mix =  0.700 |ddv_scf|^2 =  2.504E-06

      iter #   2 total cpu time :   255.3 secs   av.it.:  10.7
      thresh= 1.582E-04 alpha_mix =  0.700 |ddv_scf|^2 =  1.676E-06

      iter #   3 total cpu time :   256.8 secs   av.it.:  10.1
      thresh= 1.295E-04 alpha_mix =  0.700 |ddv_scf|^2 =  3.982E-09

      iter #   4 total cpu time :   259.2 secs   av.it.:  10.5
      thresh= 6.310E-06 alpha_mix =  0.700 |ddv_scf|^2 =  1.743E-10

      iter #   5 total cpu time :   260.6 secs   av.it.:  10.5
      thresh= 1.320E-06 alpha_mix =  0.700 |ddv_scf|^2 =  2.510E-12

      iter #   6 total cpu time :   262.2 secs   av.it.:  10.7
      thresh= 1.584E-07 alpha_mix =  0.700 |ddv_scf|^2 =  2.868E-14

      iter #   7 total cpu time :   264.2 secs   av.it.:  10.5
      thresh= 1.694E-08 alpha_mix =  0.700 |ddv_scf|^2 =  1.501E-15

      iter #   8 total cpu time :   265.8 secs   av.it.:  10.6
      thresh= 3.874E-09 alpha_mix =  0.700 |ddv_scf|^2 =  1.352E-17

     End of self-consistent calculation

     Convergence has been achieved 


     Representation #   4 mode #   4

     Self-consistent Calculation

      iter #   1 total cpu time :   267.3 secs   av.it.:   6.8
      thresh= 1.000E-02 alpha_mix =  0.700 |ddv_scf|^2 =  6.054E-05

      iter #   2 total cpu time :   269.3 secs   av.it.:  10.2
      thresh= 7.780E-04 alpha_mix =  0.700 |ddv_scf|^2 =  2.929E-04

      iter #   3 total cpu time :   270.6 secs   av.it.:   9.0
      thresh= 1.711E-03 alpha_mix =  0.700 |ddv_scf|^2 =  5.316E-08

      iter #   4 total cpu time :   272.7 secs   av.it.:  10.2
      thresh= 2.306E-05 alpha_mix =  0.700 |ddv_scf|^2 =  1.293E-09

      iter #   5 total cpu time :   274.2 secs   av.it.:  10.1
      thresh= 3.596E-06 alpha_mix =  0.700 |ddv_scf|^2 =  1.175E-11

      iter #   6 total cpu time :   276.1 secs   av.it.:  10.3
      thresh= 3.428E-07 alpha_mix =  0.700 |ddv_scf|^2 =  2.790E-13

      iter #   7 total cpu time :   277.5 secs   av.it.:   9.7
      thresh= 5.282E-08 alpha_mix =  0.700 |ddv_scf|^2 =  2.419E-14

      iter #   8 total cpu time :   280.2 secs   av.it.:   9.4
      thresh= 1.555E-08 alpha_mix =  0.700 |ddv_scf|^2 =  7.777E-15

      iter #   9 total cpu time :   282.5 secs   av.it.:   9.5
      thresh= 8.819E-09 alpha_mix =  0.700 |ddv_scf|^2 =  1.900E-16

     End of self-consistent calculation

     Convergence has been achieved 


     Representation #   5 mode #   5

     Self-consistent Calculation

      iter #   1 total cpu time :   287.1 secs   av.it.:   6.1
      thresh= 1.000E-02 alpha_mix =  0.700 |ddv_scf|^2 =  1.110E-06

      iter #   2 total cpu time :   288.4 secs   av.it.:  10.6
      thresh= 1.054E-04 alpha_mix =  0.700 |ddv_scf|^2 =  1.021E-06

      iter #   3 total cpu time :   289.9 secs   av.it.:   9.8
      thresh= 1.010E-04 alpha_mix =  0.700 |ddv_scf|^2 =  2.772E-07

      iter #   4 total cpu time :   292.0 secs   av.it.:   9.2
      thresh= 5.265E-05 alpha_mix =  0.700 |ddv_scf|^2 =  4.271E-10

      iter #   5 total cpu time :   293.4 secs   av.it.:  10.5
      thresh= 2.067E-06 alpha_mix =  0.700 |ddv_scf|^2 =  2.705E-11

      iter #   6 total cpu time :   294.9 secs   av.it.:  10.2
      thresh= 5.201E-07 alpha_mix =  0.700 |ddv_scf|^2 =  7.236E-14

      iter #   7 total cpu time :   296.3 secs   av.it.:  10.6
      thresh= 2.690E-08 alpha_mix =  0.700 |ddv_scf|^2 =  2.120E-14

      iter #   8 total cpu time :   297.8 secs   av.it.:  10.2
      thresh= 1.456E-08 alpha_mix =  0.700 |ddv_scf|^2 =  4.011E-14

      iter #   9 total cpu time :   299.3 secs   av.it.:   9.4
      thresh= 2.003E-08 alpha_mix =  0.700 |ddv_scf|^2 =  1.174E-16

     End of self-consistent calculation

     Convergence has been achieved 


     Representation #   6 mode #   6

     Self-consistent Calculation

      iter #   1 total cpu time :   300.8 secs   av.it.:   6.2
      thresh= 1.000E-02 alpha_mix =  0.700 |ddv_scf|^2 =  9.556E-07

      iter #   2 total cpu time :   302.2 secs   av.it.:  10.8
      thresh= 9.775E-05 alpha_mix =  0.700 |ddv_scf|^2 =  3.263E-07

      iter #   3 total cpu time :   303.7 secs   av.it.:  10.4
      thresh= 5.712E-05 alpha_mix =  0.700 |ddv_scf|^2 =  7.154E-09

      iter #   4 total cpu time :   306.8 secs   av.it.:  10.3
      thresh= 8.458E-06 alpha_mix =  0.700 |ddv_scf|^2 =  1.852E-10

      iter #   5 total cpu time :   308.2 secs   av.it.:  10.6
      thresh= 1.361E-06 alpha_mix =  0.700 |ddv_scf|^2 =  1.924E-12

      iter #   6 total cpu time :   309.7 secs   av.it.:  10.6
      thresh= 1.387E-07 alpha_mix =  0.700 |ddv_scf|^2 =  1.791E-14

      iter #   7 total cpu time :   311.1 secs   av.it.:  10.7
      thresh= 1.338E-08 alpha_mix =  0.700 |ddv_scf|^2 =  8.310E-16

     End of self-consistent calculation

     Convergence has been achieved 
 
     Number of q in the star =   24
     List of q in the star:
          1   0.666666667  -0.333333333   1.000000000
          2   1.000000000   0.333333333   0.666666667
          3   0.666666667   0.333333333   1.000000000
          4  -0.666666667  -0.333333333  -1.000000000
          5  -1.000000000  -0.333333333  -0.666666667
          6   1.000000000  -0.333333333   0.666666667
          7  -0.666666667   0.333333333  -1.000000000
          8   1.000000000   0.333333333  -0.666666667
          9  -0.333333333   1.000000000   0.666666667
         10   0.333333333   1.000000000  -0.666666667
         11  -0.333333333  -1.000000000  -0.666666667
         12  -0.333333333   0.666666667  -1.000000000
         13   1.000000000   0.666666667  -0.333333333
         14   1.000000000  -0.666666667   0.333333333
         15  -1.000000000  -0.666666667  -0.333333333
         16  -1.000000000   0.666666667   0.333333333
         17   0.333333333  -0.666666667   1.000000000
         18   0.333333333  -1.000000000   0.666666667
         19   0.333333333   0.666666667   1.000000000
         20  -0.333333333  -0.666666667  -1.000000000
         21   0.666666667  -1.000000000   0.333333333
[...]

      iter #   4 total cpu time :   381.7 secs   av.it.:  10.1
      thresh= 2.795E-05 alpha_mix =  0.700 |ddv_scf|^2 =  3.931E-10

      iter #   5 total cpu time :   383.1 secs   av.it.:  10.5
      thresh= 1.983E-06 alpha_mix =  0.700 |ddv_scf|^2 =  9.973E-12

      iter #   6 total cpu time :   385.2 secs   av.it.:  10.6
      thresh= 3.158E-07 alpha_mix =  0.700 |ddv_scf|^2 =  5.882E-14

      iter #   7 total cpu time :   386.8 secs   av.it.:  10.5
      thresh= 2.425E-08 alpha_mix =  0.700 |ddv_scf|^2 =  7.326E-15

      iter #   8 total cpu time :   388.5 secs   av.it.:  10.5
      thresh= 8.559E-09 alpha_mix =  0.700 |ddv_scf|^2 =  2.709E-15

      iter #   9 total cpu time :   389.8 secs   av.it.:  10.0
      thresh= 5.204E-09 alpha_mix =  0.700 |ddv_scf|^2 =  3.502E-16

     End of self-consistent calculation

     Convergence has been achieved 


     Representation #   6 mode #   6

     Self-consistent Calculation

      iter #   1 total cpu time :   390.9 secs   av.it.:   6.3
      thresh= 1.000E-02 alpha_mix =  0.700 |ddv_scf|^2 =  2.529E-06

      iter #   2 total cpu time :   392.3 secs   av.it.:  10.7
      thresh= 1.590E-04 alpha_mix =  0.700 |ddv_scf|^2 =  2.774E-06

      iter #   3 total cpu time :   393.6 secs   av.it.:   9.8
      thresh= 1.666E-04 alpha_mix =  0.700 |ddv_scf|^2 =  6.790E-08

      iter #   4 total cpu time :   395.3 secs   av.it.:  10.0
      thresh= 2.606E-05 alpha_mix =  0.700 |ddv_scf|^2 =  2.217E-10

      iter #   5 total cpu time :   396.7 secs   av.it.:  10.4
      thresh= 1.489E-06 alpha_mix =  0.700 |ddv_scf|^2 =  4.178E-12

      iter #   6 total cpu time :   398.1 secs   av.it.:  10.5
      thresh= 2.044E-07 alpha_mix =  0.700 |ddv_scf|^2 =  1.949E-14

      iter #   7 total cpu time :   399.9 secs   av.it.:  10.5
      thresh= 1.396E-08 alpha_mix =  0.700 |ddv_scf|^2 =  1.121E-15

      iter #   8 total cpu time :   401.2 secs   av.it.:  10.7
      thresh= 3.348E-09 alpha_mix =  0.700 |ddv_scf|^2 =  2.915E-17

     End of self-consistent calculation

     Convergence has been achieved 
 
     Number of q in the star =   24
     List of q in the star:
          1   0.500000000  -0.166666667   0.833333333
          2   0.833333333   0.166666667   0.500000000
          3   0.500000000   0.166666667   0.833333333
          4  -0.500000000  -0.166666667  -0.833333333
          5  -0.500000000  -0.166666667   0.833333333
          6  -0.833333333  -0.166666667  -0.500000000
          7   0.833333333  -0.166666667   0.500000000
          8  -0.500000000   0.166666667  -0.833333333
          9  -0.500000000   0.166666667   0.833333333
         10   0.833333333  -0.166666667  -0.500000000
         11  -0.833333333  -0.166666667   0.500000000
         12   0.500000000   0.166666667  -0.833333333
         13  -0.833333333   0.166666667   0.500000000
         14   0.833333333   0.166666667  -0.500000000
         15  -0.833333333   0.166666667  -0.500000000
         16  -0.166666667   0.500000000  -0.833333333
         17   0.833333333   0.500000000  -0.166666667
         18  -0.833333333  -0.500000000  -0.166666667
         19  -0.833333333   0.500000000   0.166666667
         20   0.166666667  -0.500000000   0.833333333
         21  -0.166666667   0.500000000   0.833333333
         22   0.166666667   0.500000000  -0.833333333
         23  -0.166666667  -0.500000000  -0.833333333
         24  -0.500000000   0.833333333   0.166666667

     Diagonalizing the dynamical matrix

     q = (    0.500000000  -0.166666667   0.833333333 ) 

 **************************************************************************
     freq (    1) =       5.051954 [THz] =     168.515049 [cm-1]
     freq (    2) =       6.066577 [THz] =     202.359228 [cm-1]
     freq (    3) =       9.812860 [THz] =     327.321782 [cm-1]
     freq (    4) =      11.453241 [THz] =     382.038994 [cm-1]
     freq (    5) =      14.041855 [THz] =     468.385882 [cm-1]
     freq (    6) =      14.270889 [THz] =     476.025612 [cm-1]
 **************************************************************************

     Calculation of q =   -0.3333333  -1.0000000   0.0000000
 
     Parallelization info
     --------------------
     sticks:   dense  smooth     PW     G-vecs:    dense   smooth      PW
     Min         125     125     43                 2608     2608     533
     Max         126     126     44                 2611     2611     536
     Sum        1003    1003    349                20875    20875    4279
 
     Using Slab Decomposition
 

     Title: 
     default                                                                    


     bravais-lattice index     =            2
     lattice parameter (alat)  =      10.1899  a.u.
     unit-cell volume          =     264.5151 (a.u.)^3
     number of atoms/cell      =            2
     number of atomic types    =            1
     number of electrons       =         8.00
     number of Kohn-Sham states=            4
     kinetic-energy cutoff     =      70.0000  Ry
     charge density cutoff     =     280.0000  Ry
     Exchange-correlation= PW
                           (   1   4   0   0   0   0   0)

     celldm(1)=  10.189905  celldm(2)=   0.000000  celldm(3)=   0.000000
     celldm(4)=   0.000000  celldm(5)=   0.000000  celldm(6)=   0.000000

     crystal axes: (cart. coord. in units of alat)
               a(1) = (  -0.500000   0.000000   0.500000 )  
               a(2) = (   0.000000   0.500000   0.500000 )  
               a(3) = (  -0.500000   0.500000   0.000000 )  

     reciprocal axes: (cart. coord. in units 2 pi/alat)
               b(1) = ( -1.000000 -1.000000  1.000000 )  
               b(2) = (  1.000000  1.000000  1.000000 )  
               b(3) = ( -1.000000  1.000000 -1.000000 )  


     PseudoPot. # 1 for Si read from file:
     /fastscratch/tsievers/si_ph_benchmark_images//pseudos/Si.nc.UPF
     MD5 check sum: 9e2d726316af3d4752eea8ab0afbb951
     Pseudo is Norm-conserving + core correction, Zval =  4.0
     Generated using ONCVPSP code by D. R. Hamann
     Using radial grid of 1510 points,  6 beta functions with: 
                l(1) =   0
                l(2) =   0
                l(3) =   1
                l(4) =   1
                l(5) =   2
                l(6) =   2

     atomic species   valence    mass     pseudopotential
        Si             4.00    28.08550     Si( 1.00)

     48 Sym. Ops., with inversion, found



   Cartesian axes

     site n.     atom                  positions (alat units)
         1           Si  tau(   1) = (   0.0000000   0.0000000   0.0000000  )
         2           Si  tau(   2) = (  -0.2500000   0.2500000   0.2500000  )

     number of k points=   432

     Number of k-points >= 100: set verbosity='high' to print them.

     Dense  grid:    20875 G-vectors     FFT dimensions: (  40,  40,  40)

     Estimated max dynamical RAM per process >       2.67 MB

     Estimated total dynamical RAM >     106.69 MB

     The potential is recalculated from file :
     /fastscratch/tsievers/QE_TMP_DIR/_ph1/si_ph_bench_nimages_2_n_procs_80_2.save/charge-density

     Starting wfcs are    8 atomic wfcs

     Band Structure Calculation
     Davidson diagonalization with overlap

     ethr =  1.25E-10,  avg # of iterations = 12.8

     total cpu time spent up to now is       24.7 secs

     End of band structure calculation

     Number of k-points >= 100: set verbosity='high' to print the bands.

     highest occupied level (ev):     6.1106

     Writing config to output data dir /fastscratch/tsievers/QE_TMP_DIR/_ph1/si_ph_bench_nimages_2_n_procs_80_2.save/

     default                                                                    

     bravais-lattice index     =            2
     lattice parameter (alat)  =      10.1899  a.u.
     unit-cell volume          =     264.5151 (a.u.)^3
     number of atoms/cell      =            2
     number of atomic types    =            1
     kinetic-energy cut-off    =      70.0000  Ry
     charge density cut-off    =     280.0000  Ry
     convergence threshold     =      1.0E-15
     beta                      =       0.7000
     number of iterations used =            4
     Exchange-correlation= PW
                           (   1   4   0   0   0   0   0)


     celldm(1)=   10.18990  celldm(2)=    0.00000  celldm(3)=    0.00000
     celldm(4)=    0.00000  celldm(5)=    0.00000  celldm(6)=    0.00000

     crystal axes: (cart. coord. in units of alat)
               a(1) = ( -0.5000  0.0000  0.5000 )  
               a(2) = (  0.0000  0.5000  0.5000 )  
               a(3) = ( -0.5000  0.5000  0.0000 )  

     reciprocal axes: (cart. coord. in units 2 pi/alat)
               b(1) = ( -1.0000 -1.0000  1.0000 )  
               b(2) = (  1.0000  1.0000  1.0000 )  
               b(3) = ( -1.0000  1.0000 -1.0000 )  


     Atoms inside the unit cell: 

     Cartesian axes

     site n.  atom      mass           positions (alat units)
        1     Si  28.0855   tau(    1) = (    0.00000    0.00000    0.00000  )
        2     Si  28.0855   tau(    2) = (   -0.25000    0.25000    0.25000  )

     Computing dynamical matrix for 
                    q = (  -0.3333333  -1.0000000   0.0000000 )
 
      4 Sym.Ops. (no q -> -q+G )


     G cutoff =  736.4420  (   2611 G-vectors)     FFT grid: ( 40, 40, 40)
     number of k points=   432

     PseudoPot. # 1 for Si read from file:
     /fastscratch/tsievers/si_ph_benchmark_images//pseudos/Si.nc.UPF
     MD5 check sum: 9e2d726316af3d4752eea8ab0afbb951
     Pseudo is Norm-conserving + core correction, Zval =  4.0
     Generated using ONCVPSP code by D. R. Hamann
     Using radial grid of 1510 points,  6 beta functions with: 
                l(1) =   0
                l(2) =   0
                l(3) =   1
                l(4) =   1
                l(5) =   2
                l(6) =   2


     Atomic displacements:
     There are    3 irreducible representations

     Representation     1      2 modes -  To be done

     Representation     2      2 modes -  To be done

     Representation     3      2 modes -  To be done



     Alpha used in Ewald sum =   2.8000
     PHONON       :   5m18.64s CPU   6m46.84s WALL



     Representation #   1 modes #   1   2

     Self-consistent Calculation

      iter #   1 total cpu time :   407.9 secs   av.it.:   6.2
      thresh= 1.000E-02 alpha_mix =  0.700 |ddv_scf|^2 =  5.043E-07

      iter #   2 total cpu time :   411.1 secs   av.it.:  11.4
      thresh= 7.101E-05 alpha_mix =  0.700 |ddv_scf|^2 =  5.623E-07

      iter #   3 total cpu time :   413.5 secs   av.it.:  10.8
      thresh= 7.499E-05 alpha_mix =  0.700 |ddv_scf|^2 =  4.578E-09

      iter #   4 total cpu time :   415.3 secs   av.it.:  11.0
      thresh= 6.766E-06 alpha_mix =  0.700 |ddv_scf|^2 =  9.291E-11

      iter #   5 total cpu time :   417.3 secs   av.it.:  11.1
      thresh= 9.639E-07 alpha_mix =  0.700 |ddv_scf|^2 =  1.073E-12

      iter #   6 total cpu time :   418.8 secs   av.it.:  11.3
      thresh= 1.036E-07 alpha_mix =  0.700 |ddv_scf|^2 =  2.151E-14

      iter #   7 total cpu time :   420.5 secs   av.it.:  11.2
      thresh= 1.467E-08 alpha_mix =  0.700 |ddv_scf|^2 =  1.128E-15

      iter #   8 total cpu time :   422.1 secs   av.it.:  11.2
      thresh= 3.358E-09 alpha_mix =  0.700 |ddv_scf|^2 =  4.051E-17

     End of self-consistent calculation

     Convergence has been achieved 


     Representation #   2 modes #   3   4

     Self-consistent Calculation

      iter #   1 total cpu time :   424.1 secs   av.it.:   6.4
      thresh= 1.000E-02 alpha_mix =  0.700 |ddv_scf|^2 =  9.142E-07

      iter #   2 total cpu time :   426.0 secs   av.it.:  11.4
      thresh= 9.562E-05 alpha_mix =  0.700 |ddv_scf|^2 =  1.025E-06

      iter #   3 total cpu time :   427.5 secs   av.it.:  10.8
      thresh= 1.012E-04 alpha_mix =  0.700 |ddv_scf|^2 =  8.860E-09

      iter #   4 total cpu time :   429.1 secs   av.it.:  10.9
      thresh= 9.413E-06 alpha_mix =  0.700 |ddv_scf|^2 =  9.243E-11

      iter #   5 total cpu time :   430.9 secs   av.it.:  11.1
      thresh= 9.614E-07 alpha_mix =  0.700 |ddv_scf|^2 =  2.106E-12

      iter #   6 total cpu time :   432.5 secs   av.it.:  11.3
      thresh= 1.451E-07 alpha_mix =  0.700 |ddv_scf|^2 =  1.672E-14

      iter #   7 total cpu time :   434.1 secs   av.it.:  11.2
      thresh= 1.293E-08 alpha_mix =  0.700 |ddv_scf|^2 =  1.064E-15

      iter #   8 total cpu time :   435.5 secs   av.it.:  11.3
      thresh= 3.262E-09 alpha_mix =  0.700 |ddv_scf|^2 =  4.230E-17

     End of self-consistent calculation

     Convergence has been achieved 


     Representation #   3 modes #   5   6

     Self-consistent Calculation

      iter #   1 total cpu time :   438.6 secs   av.it.:   6.5
      thresh= 1.000E-02 alpha_mix =  0.700 |ddv_scf|^2 =  1.211E-06

      iter #   2 total cpu time :   443.5 secs   av.it.:  11.3
      thresh= 1.100E-04 alpha_mix =  0.700 |ddv_scf|^2 =  1.329E-06

      iter #   3 total cpu time :   445.5 secs   av.it.:  10.6
      thresh= 1.153E-04 alpha_mix =  0.700 |ddv_scf|^2 =  1.072E-08

      iter #   4 total cpu time :   448.2 secs   av.it.:  10.8
      thresh= 1.036E-05 alpha_mix =  0.700 |ddv_scf|^2 =  7.284E-11

      iter #   5 total cpu time :   449.8 secs   av.it.:  11.1
      thresh= 8.535E-07 alpha_mix =  0.700 |ddv_scf|^2 =  6.921E-13

      iter #   6 total cpu time :   451.6 secs   av.it.:  11.2
      thresh= 8.319E-08 alpha_mix =  0.700 |ddv_scf|^2 =  1.216E-14

      iter #   7 total cpu time :   453.2 secs   av.it.:  11.1
      thresh= 1.103E-08 alpha_mix =  0.700 |ddv_scf|^2 =  7.313E-16

     End of self-consistent calculation

     Convergence has been achieved 
 
     Number of q in the star =   12
     List of q in the star:
          1  -0.333333333  -1.000000000   0.000000000
          2   0.333333333  -1.000000000   0.000000000
          3   0.000000000  -1.000000000   0.333333333
          4   0.000000000  -1.000000000  -0.333333333
          5  -1.000000000   0.000000000  -0.333333333
          6   1.000000000   0.000000000   0.333333333
          7  -1.000000000  -0.333333333   0.000000000
          8   0.000000000  -0.333333333  -1.000000000
          9   0.000000000   0.333333333   1.000000000
         10   1.000000000   0.333333333   0.000000000
         11  -0.333333333   0.000000000   1.000000000
         12   0.333333333   0.000000000   1.000000000

     Diagonalizing the dynamical matrix

     q = (   -0.333333333  -1.000000000   0.000000000 ) 

 **************************************************************************
     freq (    1) =       5.494520 [THz] =     183.277460 [cm-1]
     freq (    2) =       5.494520 [THz] =     183.277460 [cm-1]
     freq (    3) =      10.966322 [THz] =     365.797130 [cm-1]
     freq (    4) =      10.966322 [THz] =     365.797130 [cm-1]
     freq (    5) =      14.002123 [THz] =     467.060537 [cm-1]
     freq (    6) =      14.002123 [THz] =     467.060537 [cm-1]
 **************************************************************************
 
     init_run     :      0.20s CPU      0.21s WALL (       8 calls)
     electrons    :     15.30s CPU     15.86s WALL (       8 calls)

     Called by init_run:
     wfcinit      :      0.00s CPU      0.01s WALL (       8 calls)
     potinit      :      0.01s CPU      0.02s WALL (       8 calls)
     hinit0       :      0.08s CPU      0.08s WALL (       8 calls)

     Called by electrons:
     c_bands      :     15.30s CPU     15.86s WALL (       8 calls)
     v_of_rho     :      0.01s CPU      0.01s WALL (       9 calls)

     Called by c_bands:
     init_us_2    :      2.66s CPU      2.78s WALL (   24447 calls)
     init_us_2:cp :      2.60s CPU      2.73s WALL (   24447 calls)
     cegterg      :     10.83s CPU     11.23s WALL (     890 calls)

     Called by *egterg:
     cdiaghg      :      0.73s CPU      0.76s WALL (   12591 calls)
     h_psi        :    178.11s CPU    185.72s WALL (  248997 calls)
     g_psi        :      0.10s CPU      0.10s WALL (   11701 calls)

     Called by h_psi:
     h_psi:calbec :     12.97s CPU     13.52s WALL (  248997 calls)
     vloc_psi     :    152.98s CPU    159.53s WALL (  248997 calls)
     add_vuspsi   :      9.94s CPU     10.45s WALL (  248997 calls)

     General routines
     calbec       :     23.57s CPU     24.77s WALL (  498609 calls)
     fft          :      0.32s CPU      0.37s WALL (    1674 calls)
     ffts         :      0.66s CPU      0.68s WALL (    2698 calls)
     fftw         :    164.02s CPU    171.19s WALL ( 2094302 calls)
     davcio       :      1.33s CPU      6.30s WALL (  104667 calls)
 
     Parallel routines
 
     PHONON       :   5m54.96s CPU   7m34.70s WALL

     INITIALIZATION: 
     phq_setup    :      0.02s CPU      1.73s WALL (       8 calls)
     phq_init     :      1.38s CPU      1.44s WALL (       8 calls)
 
     phq_init     :      1.38s CPU      1.44s WALL (       8 calls)
     set_drhoc    :      0.51s CPU      0.52s WALL (      22 calls)
     init_vloc    :      0.02s CPU      0.02s WALL (       9 calls)
     init_us_1    :      0.02s CPU      0.02s WALL (       9 calls)
     init_us_2    :      2.66s CPU      2.78s WALL (   24447 calls)
 
     DYNAMICAL MATRIX:
     dynmat0      :      0.82s CPU      0.86s WALL (       7 calls)
     phqscf       :    333.82s CPU    412.01s WALL (       8 calls)
     dynmatrix    :     20.28s CPU     28.44s WALL (       7 calls)
 
     phqscf       :    333.82s CPU    412.01s WALL (       8 calls)
     solve_linter :    332.72s CPU    408.07s WALL (      36 calls)
     drhodv       :      1.07s CPU      1.11s WALL (      36 calls)
 
     dynmat0      :      0.82s CPU      0.86s WALL (       7 calls)
     dynmat_us    :      0.46s CPU      0.47s WALL (       7 calls)
     d2ionq       :      0.00s CPU      0.00s WALL (       7 calls)
     dynmatcc     :      0.34s CPU      0.34s WALL (       7 calls)
 
     dynmat_us    :      0.46s CPU      0.47s WALL (       7 calls)
 
     phqscf       :    333.82s CPU    412.01s WALL (       8 calls)
     solve_linter :    332.72s CPU    408.07s WALL (      36 calls)
 
     solve_linter :    332.72s CPU    408.07s WALL (      36 calls)
     dvqpsi_us    :      3.14s CPU      3.28s WALL (    2482 calls)
     sth_kernel   :    264.74s CPU    279.38s WALL (     276 calls)
     apply_dpot_b :     12.90s CPU     13.57s WALL (   17272 calls)
     ortho        :      0.68s CPU      0.72s WALL (   19754 calls)
     cgsolve      :    194.04s CPU    202.43s WALL (   19754 calls)
     incdrhoscf   :     15.57s CPU     16.26s WALL (   19754 calls)
     dv_of_drho   :      0.16s CPU      0.16s WALL (     329 calls)
     mix_pot      :      2.70s CPU     33.33s WALL (     276 calls)
     psymdvscf    :      3.19s CPU      3.25s WALL (     276 calls)
 
     dvqpsi_us    :      3.14s CPU      3.28s WALL (    2482 calls)
     dvqpsi_us_on :      0.64s CPU      0.66s WALL (    2482 calls)
 
     cgsolve      :    194.04s CPU    202.43s WALL (   19754 calls)
     ch_psi       :    189.17s CPU    197.27s WALL (  235516 calls)
 
     ch_psi       :    189.17s CPU    197.27s WALL (  235516 calls)
     h_psi        :    178.11s CPU    185.72s WALL (  248997 calls)
     last         :     18.40s CPU     19.21s WALL (  235516 calls)
 
     h_psi        :    178.11s CPU    185.72s WALL (  248997 calls)
     add_vuspsi   :      9.94s CPU     10.45s WALL (  248997 calls)
 
     incdrhoscf   :     15.57s CPU     16.26s WALL (   19754 calls)
 
 
      General routines
     calbec       :     23.57s CPU     24.77s WALL (  498609 calls)
     fft          :      0.32s CPU      0.37s WALL (    1674 calls)
     ffts         :      0.66s CPU      0.68s WALL (    2698 calls)
     fftw         :    164.02s CPU    171.19s WALL ( 2094302 calls)
     davcio       :      1.33s CPU      6.30s WALL (  104667 calls)
     write_rec    :      0.20s CPU     31.69s WALL (     312 calls)
 
     PHONON       :   5m54.96s CPU   7m34.70s WALL

