Module for gcc 10.2:
(GNU C/C++/FORTRAN compilers v10.2.0) - loaded.
Module for OpenMPI 4.1.0-gcc10.2-infiniband loaded.

     Program PWSCF v.7.0 starts on 14Feb2022 at 11:41:43 

     This program is part of the open-source Quantum ESPRESSO suite
     for quantum simulation of materials; please cite
         "P. Giannozzi et al., J. Phys.:Condens. Matter 21 395502 (2009);
         "P. Giannozzi et al., J. Phys.:Condens. Matter 29 465901 (2017);
         "P. Giannozzi et al., J. Chem. Phys. 152 154105 (2020);
          URL http://www.quantum-espresso.org", 
     in publications or presentations arising from this work. More details at
     http://www.quantum-espresso.org/quote

     Parallel version (MPI), running on     1 processors

     MPI processes distributed on     1 nodes
     62923 MiB available memory on the printing compute node when the environment starts

     Reading input from in_files/TaS2_bench_1.scf

     Current dimensions of program PWSCF are:
     Max number of different atomic species (ntypx) = 10
     Max number of k-points (npk) =  40000
     Max angular momentum in pseudopotentials (lmaxx) =  4

     Subspace diagonalization in iterative solution of the eigenvalue problem:
     a serial algorithm will be used


     G-vector sticks info
     --------------------
     sticks:   dense  smooth     PW     G-vecs:    dense   smooth      PW
     Sum        1099     559    163               132031    46753    7647

     Using Slab Decomposition



     bravais-lattice index     =            4
     lattice parameter (alat)  =       6.3117  a.u.
     unit-cell volume          =     977.9382 (a.u.)^3
     number of atoms/cell      =            3
     number of atomic types    =            2
     number of electrons       =        25.00
     number of Kohn-Sham states=           17
     kinetic-energy cutoff     =      50.0000  Ry
     charge density cutoff     =     400.0000  Ry
     scf convergence threshold =      1.0E-18
     mixing beta               =       0.7000
     number of iterations used =            8  plain     mixing
     Exchange-correlation=  SLA  PW   PBX  PBC
                           (   1   4   3   4   0   0   0)

     celldm(1)=   6.311685  celldm(2)=   0.000000  celldm(3)=   4.491018
     celldm(4)=   0.000000  celldm(5)=   0.000000  celldm(6)=   0.000000

     crystal axes: (cart. coord. in units of alat)
               a(1) = (   1.000000   0.000000   0.000000 )  
               a(2) = (  -0.500000   0.866025   0.000000 )  
               a(3) = (   0.000000   0.000000   4.491018 )  

     reciprocal axes: (cart. coord. in units 2 pi/alat)
               b(1) = (  1.000000  0.577350 -0.000000 )  
               b(2) = (  0.000000  1.154701  0.000000 )  
               b(3) = (  0.000000 -0.000000  0.222667 )  


     PseudoPot. # 1 for Ta read from file:
     ./pseudos/Ta_pbe_v1.uspp.F.UPF
     MD5 check sum: f8bbe9446314a3b8ea5d9f3e3836c939
     Pseudo is Ultrasoft + core correction, Zval = 13.0
     Generated by new atomic code, or converted to UPF format
     Using radial grid of  921 points,  7 beta functions with: 
                l(1) =   0
                l(2) =   0
                l(3) =   1
                l(4) =   1
                l(5) =   2
                l(6) =   2
                l(7) =   3
     Q(r) pseudized with  6 coefficients,  rinner =    1.300   1.300   1.300
                                                       1.300   1.300   1.300
                                                       1.300

     PseudoPot. # 2 for S  read from file:
     ./pseudos/s_pbe_v1.4.uspp.F.UPF
     MD5 check sum: 88d86576ff6df21479756cfb9bdac1df
     Pseudo is Ultrasoft + core correction, Zval =  6.0
     Generated by new atomic code, or converted to UPF format
     Using radial grid of  907 points,  6 beta functions with: 
                l(1) =   0
                l(2) =   0
                l(3) =   1
                l(4) =   1
                l(5) =   2
                l(6) =   2
     Q(r) pseudized with  8 coefficients,  rinner =    1.300   1.300   1.300
                                                       1.300   1.300

     atomic species   valence    mass     pseudopotential
        Ta            13.00   180.95000     Ta( 1.00)
        S              6.00    32.06000     S ( 1.00)

     12 Sym. Ops. (no inversion) found



   Cartesian axes

     site n.     atom                  positions (alat units)
         1           S   tau(   1) = (  -0.0000000   0.5773503   0.4679075  )
         2           Ta  tau(   2) = (   0.0000000   0.0000000   0.0000000  )
         3           S   tau(   3) = (  -0.0000000   0.5773503  -0.4679075  )

     number of k points=   217  Marzari-Vanderbilt smearing, width (Ry)=  0.0020

     Number of k-points >= 100: set verbosity='high' to print them.

     Dense  grid:   132031 G-vectors     FFT dimensions: (  45,  45, 192)

     Smooth grid:    46753 G-vectors     FFT dimensions: (  30,  30, 128)

     Estimated max dynamical RAM per process >       1.11 GB
 ----2D----2D----2D----2D----2D----2D----2D----2D----2D----2D----2D----2D
  The code is running with the 2D cutoff
  Please refer to:
  Sohier, T., Calandra, M., & Mauri, F. (2017), 
  Density functional perturbation theory for gated two-dimensional heterostructures:
  Theoretical developments and application to flexural phonons in graphene.
  Physical Review B, 96(7), 75448. https://doi.org/10.1103/PhysRevB.96.075448
 ----2D----2D----2D----2D----2D----2D----2D----2D----2D----2D----2D----2D

     Initial potential from superposition of free atoms

     starting charge      24.9988, renormalised to      25.0000

     negative rho (up, down):  9.496E-02 0.000E+00
     Starting wfcs are   21 randomized atomic wfcs

     total cpu time spent up to now is       24.5 secs

     Self-consistent Calculation

     iteration #  1     ecut=    50.00 Ry     beta= 0.70
     Davidson diagonalization with overlap
     ethr =  1.00E-02,  avg # of iterations =  3.1

     Threshold (ethr) on eigenvalues was too large:
     Diagonalizing with lowered threshold

     Davidson diagonalization with overlap
     ethr =  5.45E-04,  avg # of iterations =  2.9

     negative rho (up, down):  9.869E-02 0.000E+00

     total cpu time spent up to now is      131.4 secs

     total energy              =    -190.25436465 Ry
     estimated scf accuracy    <       0.14573634 Ry

     iteration #  2     ecut=    50.00 Ry     beta= 0.70
     Davidson diagonalization with overlap
     ethr =  5.83E-04,  avg # of iterations =  2.1

     negative rho (up, down):  9.950E-02 0.000E+00

     total cpu time spent up to now is      190.0 secs

     total energy              =    -190.22223340 Ry
     estimated scf accuracy    <       0.38387540 Ry

     iteration #  3     ecut=    50.00 Ry     beta= 0.70
     Davidson diagonalization with overlap
     ethr =  5.83E-04,  avg # of iterations =  2.0

     negative rho (up, down):  1.002E-01 0.000E+00

     total cpu time spent up to now is      243.3 secs

     total energy              =    -190.30429592 Ry
     estimated scf accuracy    <       0.05111240 Ry

     iteration #  4     ecut=    50.00 Ry     beta= 0.70
     Davidson diagonalization with overlap
     ethr =  2.04E-04,  avg # of iterations =  2.0

     negative rho (up, down):  1.010E-01 0.000E+00

     total cpu time spent up to now is      290.7 secs

     total energy              =    -190.31090149 Ry
     estimated scf accuracy    <       0.00104319 Ry

     iteration #  5     ecut=    50.00 Ry     beta= 0.70
     Davidson diagonalization with overlap
     ethr =  4.17E-06,  avg # of iterations =  4.6

     negative rho (up, down):  1.010E-01 0.000E+00

     total cpu time spent up to now is      362.3 secs

     total energy              =    -190.31142602 Ry
     estimated scf accuracy    <       0.00062041 Ry

     iteration #  6     ecut=    50.00 Ry     beta= 0.70
     Davidson diagonalization with overlap
     ethr =  2.48E-06,  avg # of iterations =  2.0

     negative rho (up, down):  1.011E-01 0.000E+00

     total cpu time spent up to now is      410.9 secs

     total energy              =    -190.31146113 Ry
     estimated scf accuracy    <       0.00005283 Ry

     iteration #  7     ecut=    50.00 Ry     beta= 0.70
     Davidson diagonalization with overlap
     ethr =  2.11E-07,  avg # of iterations =  3.5

     negative rho (up, down):  1.011E-01 0.000E+00

     total cpu time spent up to now is      467.1 secs

     total energy              =    -190.31148269 Ry
     estimated scf accuracy    <       0.00000774 Ry

     iteration #  8     ecut=    50.00 Ry     beta= 0.70
     Davidson diagonalization with overlap
     ethr =  3.10E-08,  avg # of iterations =  2.6

     negative rho (up, down):  1.011E-01 0.000E+00

     total cpu time spent up to now is      521.4 secs

     total energy              =    -190.31148500 Ry
     estimated scf accuracy    <       0.00000006 Ry

     iteration #  9     ecut=    50.00 Ry     beta= 0.70
     Davidson diagonalization with overlap
     ethr =  2.34E-10,  avg # of iterations =  6.9

     negative rho (up, down):  1.011E-01 0.000E+00

     total cpu time spent up to now is      629.0 secs

     total energy              =    -190.31148511 Ry
     estimated scf accuracy    <       0.00000048 Ry

     iteration # 10     ecut=    50.00 Ry     beta= 0.70
     Davidson diagonalization with overlap
     ethr =  2.34E-10,  avg # of iterations =  3.0

     negative rho (up, down):  1.011E-01 0.000E+00

     total cpu time spent up to now is      686.8 secs

     total energy              =    -190.31148519 Ry
     estimated scf accuracy    <          3.0E-09 Ry

     iteration # 11     ecut=    50.00 Ry     beta= 0.70
     Davidson diagonalization with overlap
     ethr =  1.20E-11,  avg # of iterations =  4.0

     negative rho (up, down):  1.011E-01 0.000E+00

     total cpu time spent up to now is      756.3 secs

     total energy              =    -190.31148518 Ry
     estimated scf accuracy    <       0.00000005 Ry

     iteration # 12     ecut=    50.00 Ry     beta= 0.70
     Davidson diagonalization with overlap
     ethr =  1.20E-11,  avg # of iterations =  3.6

     negative rho (up, down):  1.011E-01 0.000E+00

     total cpu time spent up to now is      817.2 secs

     total energy              =    -190.31148519 Ry
     estimated scf accuracy    <          5.8E-10 Ry

     iteration # 13     ecut=    50.00 Ry     beta= 0.70
     Davidson diagonalization with overlap
     ethr =  2.34E-12,  avg # of iterations =  2.0

     negative rho (up, down):  1.011E-01 0.000E+00

     total cpu time spent up to now is      869.8 secs

     total energy              =    -190.31148519 Ry
     estimated scf accuracy    <          2.4E-12 Ry

     iteration # 14     ecut=    50.00 Ry     beta= 0.70
     Davidson diagonalization with overlap
     ethr =  1.00E-13,  avg # of iterations =  4.5

     negative rho (up, down):  1.011E-01 0.000E+00

     total cpu time spent up to now is      940.8 secs

     total energy              =    -190.31148519 Ry
     estimated scf accuracy    <          3.5E-11 Ry

     iteration # 15     ecut=    50.00 Ry     beta= 0.70
     Davidson diagonalization with overlap
     ethr =  1.00E-13,  avg # of iterations =  2.0

     negative rho (up, down):  1.011E-01 0.000E+00

     total cpu time spent up to now is      992.1 secs

     total energy              =    -190.31148519 Ry
     estimated scf accuracy    <          4.9E-13 Ry

     iteration # 16     ecut=    50.00 Ry     beta= 0.70
     Davidson diagonalization with overlap
     ethr =  1.00E-13,  avg # of iterations =  1.0

     negative rho (up, down):  1.011E-01 0.000E+00

     total cpu time spent up to now is     1035.2 secs

     total energy              =    -190.31148519 Ry
     estimated scf accuracy    <          2.8E-13 Ry

     iteration # 17     ecut=    50.00 Ry     beta= 0.70
     Davidson diagonalization with overlap
     ethr =  1.00E-13,  avg # of iterations =  1.0

     negative rho (up, down):  1.011E-01 0.000E+00

     total cpu time spent up to now is     1078.2 secs

     total energy              =    -190.31148519 Ry
     estimated scf accuracy    <          1.0E-13 Ry

     iteration # 18     ecut=    50.00 Ry     beta= 0.70
     Davidson diagonalization with overlap
     ethr =  1.00E-13,  avg # of iterations =  1.0

     negative rho (up, down):  1.011E-01 0.000E+00

     total cpu time spent up to now is     1121.3 secs

     total energy              =    -190.31148519 Ry
     estimated scf accuracy    <          4.6E-14 Ry

     iteration # 19     ecut=    50.00 Ry     beta= 0.70
     Davidson diagonalization with overlap
     ethr =  1.00E-13,  avg # of iterations =  1.0

     negative rho (up, down):  1.011E-01 0.000E+00

     total cpu time spent up to now is     1164.3 secs

     total energy              =    -190.31148519 Ry
     estimated scf accuracy    <          1.3E-15 Ry

     iteration # 20     ecut=    50.00 Ry     beta= 0.70
     Davidson diagonalization with overlap
     ethr =  1.00E-13,  avg # of iterations =  1.0

     negative rho (up, down):  1.011E-01 0.000E+00

     total cpu time spent up to now is     1207.4 secs

     total energy              =    -190.31148519 Ry
     estimated scf accuracy    <          2.9E-16 Ry

     iteration # 21     ecut=    50.00 Ry     beta= 0.70
     Davidson diagonalization with overlap
     ethr =  1.00E-13,  avg # of iterations =  1.0

     negative rho (up, down):  1.011E-01 0.000E+00

     total cpu time spent up to now is     1250.4 secs

     total energy              =    -190.31148519 Ry
     estimated scf accuracy    <          4.7E-17 Ry

     iteration # 22     ecut=    50.00 Ry     beta= 0.70
     Davidson diagonalization with overlap
     ethr =  1.00E-13,  avg # of iterations =  1.0

     negative rho (up, down):  1.011E-01 0.000E+00

     total cpu time spent up to now is     1293.4 secs

     total energy              =    -190.31148519 Ry
     estimated scf accuracy    <          2.0E-16 Ry

     iteration # 23     ecut=    50.00 Ry     beta= 0.70
     Davidson diagonalization with overlap
     ethr =  1.00E-13,  avg # of iterations =  1.0

     negative rho (up, down):  1.011E-01 0.000E+00

     total cpu time spent up to now is     1336.4 secs

     total energy              =    -190.31148519 Ry
     estimated scf accuracy    <          4.0E-17 Ry

     iteration # 24     ecut=    50.00 Ry     beta= 0.70
     Davidson diagonalization with overlap
     ethr =  1.00E-13,  avg # of iterations =  1.0

     negative rho (up, down):  1.011E-01 0.000E+00

     total cpu time spent up to now is     1379.6 secs

     End of self-consistent calculation

     Number of k-points >= 100: set verbosity='high' to print the bands.

     the Fermi energy is    -5.9182 ev

!    total energy              =    -190.31148519 Ry
     estimated scf accuracy    <          7.0E-19 Ry
     smearing contrib. (-TS)   =       0.00000705 Ry
     internal energy E=F+TS    =    -190.31149224 Ry

     The total energy is F=E-TS. E is the sum of the following terms:
     one-electron contribution =   -1044.74925535 Ry
     hartree contribution      =     517.61800541 Ry
     xc contribution           =     -59.14415725 Ry
     ewald contribution        =     395.96391495 Ry

     convergence has been achieved in  24 iterations

     Writing all to output data dir /fastscratch/tsievers/QE_TMP_DIR/TaS2_bench_nprocs_48x48_1.save/

     init_run     :     23.67s CPU     24.29s WALL (       1 calls)
     electrons    :   1332.51s CPU   1355.17s WALL (       1 calls)

     Called by init_run:
     wfcinit      :     20.44s CPU     20.55s WALL (       1 calls)
     potinit      :      0.63s CPU      0.68s WALL (       1 calls)
     hinit0       :      1.69s CPU      1.70s WALL (       1 calls)

     Called by electrons:
     c_bands      :   1132.79s CPU   1135.03s WALL (      25 calls)
     sum_band     :    174.87s CPU    185.47s WALL (      25 calls)
     v_of_rho     :      5.26s CPU      5.67s WALL (      25 calls)
     newd         :     19.74s CPU     29.50s WALL (      25 calls)
     mix_rho      :      0.52s CPU      0.56s WALL (      25 calls)

     Called by c_bands:
     init_us_2    :     40.78s CPU     41.32s WALL (   11067 calls)
     init_us_2:cp :     40.75s CPU     41.30s WALL (   11067 calls)
     cegterg      :   1037.23s CPU   1038.83s WALL (    5425 calls)

     Called by *egterg:
     cdiaghg      :      5.94s CPU      5.95s WALL (   18219 calls)
     h_psi        :    668.22s CPU    669.67s WALL (   18653 calls)
     s_psi        :    124.95s CPU    125.03s WALL (   18653 calls)
     g_psi        :      5.85s CPU      5.86s WALL (   13011 calls)

     Called by h_psi:
     h_psi:calbec :    120.17s CPU    120.29s WALL (   18653 calls)
     vloc_psi     :    420.72s CPU    421.97s WALL (   18653 calls)
     add_vuspsi   :    124.96s CPU    125.04s WALL (   18653 calls)

     General routines
     calbec       :    166.44s CPU    166.62s WALL (   24078 calls)
     fft          :      1.96s CPU      1.98s WALL (     324 calls)
     ffts         :      0.30s CPU      0.32s WALL (      50 calls)
     fftw         :    425.79s CPU    427.10s WALL (  569237 calls)
     interpolate  :      0.43s CPU      0.45s WALL (      25 calls)

     Parallel routines

     PWSCF        :  22m36.55s CPU  23m 5.21s WALL


   This run was terminated on:  12: 4:48  14Feb2022            

=------------------------------------------------------------------------------=
   JOB DONE.
=------------------------------------------------------------------------------=
