Module for intel-oneAPI 2021.4 loaded.
 
:: initializing oneAPI environment ...
   2727792: BASH_VERSION = 4.4.20(1)-release
:: advisor -- latest
:: ccl -- latest
:: clck -- latest
:: compiler -- latest
:: dal -- latest
:: debugger -- latest
:: dev-utilities -- latest
:: dnnl -- latest
:: dpcpp-ct -- latest
:: dpl -- latest
:: inspector -- latest
:: intelpython -- latest
:: ipp -- latest
:: ippcp -- latest
:: ipp -- latest
:: itac -- latest
:: LPOT -- latest
:: mkl -- latest
:: modelzoo -- latest
:: mpi -- latest
:: pytorch -- latest
:: tbb -- latest
:: tensorflow -- latest
:: vpl -- latest
:: vtune -- latest
:: oneAPI environment initialized ::
 

     Program PWSCF v.7.0 starts on 19May2022 at  1:15:15 

     This program is part of the open-source Quantum ESPRESSO suite
     for quantum simulation of materials; please cite
         "P. Giannozzi et al., J. Phys.:Condens. Matter 21 395502 (2009);
         "P. Giannozzi et al., J. Phys.:Condens. Matter 29 465901 (2017);
         "P. Giannozzi et al., J. Chem. Phys. 152 154105 (2020);
          URL http://www.quantum-espresso.org", 
     in publications or presentations arising from this work. More details at
     http://www.quantum-espresso.org/quote

     Parallel version (MPI), running on    48 processors

     MPI processes distributed on     3 nodes
     K-points division:     npool     =       6
     R & G space division:  proc/nbgrp/npool/nimage =       8
     18798 MiB available memory on the printing compute node when the environment starts
 
     Reading input from in_files/si_ph_bench_poolsize_8_n_procs_48_0.scf

     Current dimensions of program PWSCF are:
     Max number of different atomic species (ntypx) = 10
     Max number of k-points (npk) =  40000
     Max angular momentum in pseudopotentials (lmaxx) =  4

     Subspace diagonalization in iterative solution of the eigenvalue problem:
     one sub-group per band group will be used
     scalapack distributed-memory algorithm (size of sub-group:  2*  2 procs)

 
     Parallelization info
     --------------------
     sticks:   dense  smooth     PW     G-vecs:    dense   smooth      PW
     Min         125     125     37                 2608     2608     433
     Max         126     126     38                 2611     2611     436
     Sum        1003    1003    301                20875    20875    3479
 
     Using Slab Decomposition
 


     bravais-lattice index     =            2
     lattice parameter (alat)  =      10.1899  a.u.
     unit-cell volume          =     264.5151 (a.u.)^3
     number of atoms/cell      =            2
     number of atomic types    =            1
     number of electrons       =         8.00
     number of Kohn-Sham states=            4
     kinetic-energy cutoff     =      70.0000  Ry
     charge density cutoff     =     280.0000  Ry
     scf convergence threshold =      1.0E-10
     mixing beta               =       0.7000
     number of iterations used =            8  plain     mixing
     Exchange-correlation= SLA  PW   NOGX NOGC
                           (   1   4   0   0   0   0   0)

     celldm(1)=  10.189905  celldm(2)=   0.000000  celldm(3)=   0.000000
     celldm(4)=   0.000000  celldm(5)=   0.000000  celldm(6)=   0.000000

     crystal axes: (cart. coord. in units of alat)
               a(1) = (  -0.500000   0.000000   0.500000 )  
               a(2) = (   0.000000   0.500000   0.500000 )  
               a(3) = (  -0.500000   0.500000   0.000000 )  

     reciprocal axes: (cart. coord. in units 2 pi/alat)
               b(1) = ( -1.000000 -1.000000  1.000000 )  
               b(2) = (  1.000000  1.000000  1.000000 )  
               b(3) = ( -1.000000  1.000000 -1.000000 )  


     PseudoPot. # 1 for Si read from file:
     ./pseudos/Si.nc.UPF
     MD5 check sum: 9e2d726316af3d4752eea8ab0afbb951
     Pseudo is Norm-conserving + core correction, Zval =  4.0
     Generated using ONCVPSP code by D. R. Hamann
     Using radial grid of 1510 points,  6 beta functions with: 
                l(1) =   0
                l(2) =   0
                l(3) =   1
                l(4) =   1
                l(5) =   2
                l(6) =   2

     atomic species   valence    mass     pseudopotential
        Si             4.00    28.08550     Si( 1.00)

     48 Sym. Ops., with inversion, found (24 have fractional translation)



   Cartesian axes

     site n.     atom                  positions (alat units)
         1           Si  tau(   1) = (   0.0000000   0.0000000   0.0000000  )
         2           Si  tau(   2) = (  -0.2500000   0.2500000   0.2500000  )

     number of k points=    28
                       cart. coord. in units 2pi/alat
        k(    1) = (  -0.0833333   0.0833333   0.0833333), wk =   0.0185185
        k(    2) = (  -0.2500000   0.2500000  -0.0833333), wk =   0.0555556
        k(    3) = (  -0.4166667   0.4166667  -0.2500000), wk =   0.0555556
        k(    4) = (   0.4166667  -0.4166667   0.5833333), wk =   0.0555556
        k(    5) = (   0.2500000  -0.2500000   0.4166667), wk =   0.0555556
        k(    6) = (   0.0833333  -0.0833333   0.2500000), wk =   0.0555556
        k(    7) = (  -0.0833333   0.4166667   0.0833333), wk =   0.0555556
        k(    8) = (  -0.2500000   0.5833333  -0.0833333), wk =   0.1111111
        k(    9) = (   0.5833333  -0.2500000   0.7500000), wk =   0.1111111
        k(   10) = (   0.4166667  -0.0833333   0.5833333), wk =   0.1111111
        k(   11) = (   0.2500000   0.0833333   0.4166667), wk =   0.1111111
        k(   12) = (  -0.0833333   0.7500000   0.0833333), wk =   0.0555556
        k(   13) = (   0.7500000  -0.0833333   0.9166667), wk =   0.1111111
        k(   14) = (   0.5833333   0.0833333   0.7500000), wk =   0.1111111
        k(   15) = (   0.4166667   0.2500000   0.5833333), wk =   0.1111111
        k(   16) = (  -0.0833333  -0.9166667   0.0833333), wk =   0.0555556
        k(   17) = (  -0.2500000  -0.7500000  -0.0833333), wk =   0.1111111
        k(   18) = (  -0.0833333  -0.5833333   0.0833333), wk =   0.0555556
        k(   19) = (  -0.2500000   0.2500000   0.2500000), wk =   0.0185185
        k(   20) = (  -0.4166667   0.4166667   0.0833333), wk =   0.0555556
        k(   21) = (   0.4166667  -0.4166667   0.9166667), wk =   0.0555556
        k(   22) = (   0.2500000  -0.2500000   0.7500000), wk =   0.0555556
        k(   23) = (  -0.2500000   0.5833333   0.2500000), wk =   0.0555556
        k(   24) = (   0.5833333  -0.2500000   1.0833333), wk =   0.1111111
        k(   25) = (   0.4166667  -0.0833333   0.9166667), wk =   0.1111111
        k(   26) = (  -0.2500000  -1.0833333   0.2500000), wk =   0.0555556
        k(   27) = (  -0.4166667   0.4166667   0.4166667), wk =   0.0185185
        k(   28) = (   0.4166667  -0.4166667   1.2500000), wk =   0.0555556

     Dense  grid:    20875 G-vectors     FFT dimensions: (  40,  40,  40)

     Estimated max dynamical RAM per process >       3.36 MB

     Estimated total dynamical RAM >     135.81 MB

     Initial potential from superposition of free atoms

     starting charge       7.9989, renormalised to       8.0000
     Starting wfcs are    8 randomized atomic wfcs

     total cpu time spent up to now is        0.2 secs

     Self-consistent Calculation

     iteration #  1     ecut=    70.00 Ry     beta= 0.70
     Davidson diagonalization with overlap
     ethr =  1.00E-02,  avg # of iterations =  2.0

     Threshold (ethr) on eigenvalues was too large:
     Diagonalizing with lowered threshold

     Davidson diagonalization with overlap
     ethr =  6.12E-04,  avg # of iterations =  2.0

     total cpu time spent up to now is        0.3 secs

     total energy              =     -17.04761067 Ry
     estimated scf accuracy    <       0.05797448 Ry

     iteration #  2     ecut=    70.00 Ry     beta= 0.70
     Davidson diagonalization with overlap
     ethr =  7.25E-04,  avg # of iterations =  1.0

     total cpu time spent up to now is        0.3 secs

     total energy              =     -17.04994650 Ry
     estimated scf accuracy    <       0.00250259 Ry

     iteration #  3     ecut=    70.00 Ry     beta= 0.70
     Davidson diagonalization with overlap
     ethr =  3.13E-05,  avg # of iterations =  3.0

     total cpu time spent up to now is        0.4 secs

     total energy              =     -17.05082676 Ry
     estimated scf accuracy    <       0.00009731 Ry

     iteration #  4     ecut=    70.00 Ry     beta= 0.70
     Davidson diagonalization with overlap
     ethr =  1.22E-06,  avg # of iterations =  4.3

     total cpu time spent up to now is        0.4 secs

     total energy              =     -17.05089799 Ry
     estimated scf accuracy    <       0.00000317 Ry

     iteration #  5     ecut=    70.00 Ry     beta= 0.70
     Davidson diagonalization with overlap
     ethr =  3.96E-08,  avg # of iterations =  4.5

     total cpu time spent up to now is        0.5 secs

     total energy              =     -17.05090099 Ry
     estimated scf accuracy    <       0.00000017 Ry

     iteration #  6     ecut=    70.00 Ry     beta= 0.70
     Davidson diagonalization with overlap
     ethr =  2.13E-09,  avg # of iterations =  3.2

     total cpu time spent up to now is        0.5 secs

     total energy              =     -17.05090106 Ry
     estimated scf accuracy    <       0.00000002 Ry

     iteration #  7     ecut=    70.00 Ry     beta= 0.70
     Davidson diagonalization with overlap
     ethr =  1.93E-10,  avg # of iterations =  3.4

     total cpu time spent up to now is        0.6 secs

     End of self-consistent calculation

          k =-0.0833 0.0833 0.0833 (  2667 PWs)   bands (ev):

    -5.7561   5.3866   6.1106   6.1106

          k =-0.2500 0.2500-0.0833 (  2621 PWs)   bands (ev):

    -5.2692   3.2787   4.8359   5.9020

          k =-0.4167 0.4167-0.2500 (  2618 PWs)   bands (ev):

    -4.1491   0.4558   4.3704   5.2525

          k = 0.4167-0.4167 0.5833 (  2604 PWs)   bands (ev):

    -3.4238  -0.7235   4.4440   4.8612

          k = 0.2500-0.2500 0.4167 (  2618 PWs)   bands (ev):

    -4.5725   1.3222   4.9163   4.9543

          k = 0.0833-0.0833 0.2500 (  2643 PWs)   bands (ev):

    -5.5104   4.3092   5.4447   5.6431

          k =-0.0833 0.4167 0.0833 (  2627 PWs)   bands (ev):

    -5.0231   3.1094   4.6844   4.6977

          k =-0.2500 0.5833-0.0833 (  2613 PWs)   bands (ev):

    -4.0918   1.2428   3.3199   4.3008

          k = 0.5833-0.2500 0.7500 (  2616 PWs)   bands (ev):

    -2.9383  -0.5645   2.7090   4.0652

          k = 0.4167-0.0833 0.5833 (  2617 PWs)   bands (ev):

    -3.6856   0.5301   2.6549   4.5685

          k = 0.2500 0.0833 0.4167 (  2624 PWs)   bands (ev):

    -4.7922   2.2460   4.0374   5.2604

          k =-0.0833 0.7500 0.0833 (  2617 PWs)   bands (ev):

    -3.3664   0.4197   3.2861   3.6484

          k = 0.7500-0.0833 0.9167 (  2608 PWs)   bands (ev):

    -2.1400  -0.9430   2.4039   3.2177

          k = 0.5833 0.0833 0.7500 (  2608 PWs)   bands (ev):

    -2.5099  -0.6178   1.9049   3.7798

          k = 0.4167 0.2500 0.5833 (  2622 PWs)   bands (ev):

    -3.5664  -0.1967   3.6417   4.6731

          k =-0.0833-0.9167 0.0833 (  2604 PWs)   bands (ev):

    -2.2385  -0.9535   3.0091   3.4291

          k =-0.2500-0.7500-0.0833 (  2615 PWs)   bands (ev):

    -3.1914   0.1893   2.7413   3.5675

          k =-0.0833-0.5833 0.0833 (  2620 PWs)   bands (ev):

    -4.3033   1.8032   3.8480   4.0788

          k =-0.2500 0.2500 0.2500 (  2632 PWs)   bands (ev):

    -5.0343   2.2731   5.4857   5.4857

          k =-0.4167 0.4167 0.0833 (  2620 PWs)   bands (ev):

    -4.3392   1.3430   3.2813   5.3165

          k = 0.4167-0.4167 0.9167 (  2613 PWs)   bands (ev):

    -3.1274  -0.1140   2.1362   4.5076

          k = 0.2500-0.2500 0.7500 (  2618 PWs)   bands (ev):

    -3.0761  -0.1941   2.6355   4.0115

          k =-0.2500 0.5833 0.2500 (  2613 PWs)   bands (ev):

    -3.9042   0.5133   3.7736   4.3933

          k = 0.5833-0.2500 1.0833 (  2619 PWs)   bands (ev):

    -2.8765  -0.2149   2.2381   3.5572

          k = 0.4167-0.0833 0.9167 (  2613 PWs)   bands (ev):

    -2.0245  -0.9506   2.0592   2.8637

          k =-0.2500-1.0833 0.2500 (  2605 PWs)   bands (ev):

    -2.2385  -0.8648   1.9290   3.8127

          k =-0.4167 0.4167 0.4167 (  2602 PWs)   bands (ev):

    -3.8074  -0.3119   5.0941   5.0941

          k = 0.4167-0.4167 1.2500 (  2605 PWs)   bands (ev):

    -3.1840  -0.6106   3.2018   4.6388

     highest occupied level (ev):     6.1106

!    total energy              =     -17.05090107 Ry
     estimated scf accuracy    <          6.3E-11 Ry

     The total energy is the sum of the following terms:
     one-electron contribution =       5.01080554 Ry
     hartree contribution      =       1.07710544 Ry
     xc contribution           =      -6.22231077 Ry
     ewald contribution        =     -16.91650128 Ry

     convergence has been achieved in   7 iterations

     Forces acting on atoms (cartesian axes, Ry/au):

     atom    1 type  1   force =     0.00000000    0.00000000    0.00000000
     atom    2 type  1   force =     0.00000000    0.00000000    0.00000000

     Total force =     0.000000     Total SCF correction =     0.000000

     Writing all to output data dir /fastscratch/tsievers/QE_TMP_DIR/si_ph_bench_poolsize_8_n_procs_48_0.save/
 
     init_run     :      0.05s CPU      0.15s WALL (       1 calls)
     electrons    :      0.39s CPU      0.45s WALL (       1 calls)
     forces       :      0.01s CPU      0.01s WALL (       1 calls)

     Called by init_run:
     wfcinit      :      0.01s CPU      0.05s WALL (       1 calls)
     potinit      :      0.00s CPU      0.03s WALL (       1 calls)
     hinit0       :      0.02s CPU      0.05s WALL (       1 calls)

     Called by electrons:
     c_bands      :      0.34s CPU      0.34s WALL (       8 calls)
     sum_band     :      0.03s CPU      0.03s WALL (       8 calls)
     v_of_rho     :      0.01s CPU      0.01s WALL (       8 calls)
     mix_rho      :      0.00s CPU      0.00s WALL (       8 calls)

     Called by c_bands:
     init_us_2    :      0.01s CPU      0.01s WALL (      90 calls)
     init_us_2:cp :      0.01s CPU      0.01s WALL (      90 calls)
     cegterg      :      0.23s CPU      0.23s WALL (      40 calls)

     Called by *egterg:
     cdiaghg      :      0.08s CPU      0.08s WALL (     163 calls)
     h_psi        :      0.12s CPU      0.13s WALL (     173 calls)
     g_psi        :      0.00s CPU      0.00s WALL (     128 calls)

     Called by h_psi:
     h_psi:calbec :      0.01s CPU      0.01s WALL (     173 calls)
     vloc_psi     :      0.10s CPU      0.11s WALL (     173 calls)
     add_vuspsi   :      0.01s CPU      0.01s WALL (     173 calls)

     General routines
     calbec       :      0.01s CPU      0.01s WALL (     193 calls)
     fft          :      0.02s CPU      0.04s WALL (      28 calls)
     ffts         :      0.00s CPU      0.00s WALL (       8 calls)
     fftw         :      0.11s CPU      0.11s WALL (    1304 calls)
 
     Parallel routines
 
     PWSCF        :      0.50s CPU      0.81s WALL

 
   This run was terminated on:   1:15:16  19May2022            

=------------------------------------------------------------------------------=
   JOB DONE.
=------------------------------------------------------------------------------=

     Program PHONON v.7.0 starts on 19May2022 at  1:15:20 

     This program is part of the open-source Quantum ESPRESSO suite
     for quantum simulation of materials; please cite
         "P. Giannozzi et al., J. Phys.:Condens. Matter 21 395502 (2009);
         "P. Giannozzi et al., J. Phys.:Condens. Matter 29 465901 (2017);
         "P. Giannozzi et al., J. Chem. Phys. 152 154105 (2020);
          URL http://www.quantum-espresso.org", 
     in publications or presentations arising from this work. More details at
     http://www.quantum-espresso.org/quote

     Parallel version (MPI), running on    48 processors

     MPI processes distributed on     3 nodes
     path-images division:  nimage    =       2
     K-points division:     npool     =       3
     R & G space division:  proc/nbgrp/npool/nimage =       8
     18782 MiB available memory on the printing compute node when the environment starts
 
     Reading input from in_files/si_ph_bench_poolsize_8_n_procs_48_0.ph
      Title line not specified: using 'default'.

     Reading xml data from directory:

     /fastscratch/tsievers/QE_TMP_DIR/si_ph_bench_poolsize_8_n_procs_48_0.save/

     IMPORTANT: XC functional enforced from input :
     Exchange-correlation= PW
                           (   1   4   0   0   0   0   0)
     Any further DFT definition will be discarded
     Please, verify this is what you really want

 
     Parallelization info
     --------------------
     sticks:   dense  smooth     PW     G-vecs:    dense   smooth      PW
     Min         125     125     37                 2608     2608     433
     Max         126     126     38                 2611     2611     436
     Sum        1003    1003    301                20875    20875    3479
 
     Using Slab Decomposition
 
     Reading collected, re-writing distributed wavefunctions


     Dynamical matrices for ( 6, 6, 6)  uniform grid of q-points
     (  16 q-points):
       N         xq(1)         xq(2)         xq(3) 
       1   0.000000000   0.000000000   0.000000000
       2  -0.166666667   0.166666667  -0.166666667
       3  -0.333333333   0.333333333  -0.333333333
       4   0.500000000  -0.500000000   0.500000000
       5   0.000000000   0.333333333   0.000000000
       6  -0.166666667   0.500000000  -0.166666667
       7   0.666666667  -0.333333333   0.666666667
       8   0.500000000  -0.166666667   0.500000000
       9   0.333333333   0.000000000   0.333333333
      10   0.000000000   0.666666667   0.000000000
      11   0.833333333  -0.166666667   0.833333333
      12   0.666666667  -0.000000000   0.666666667
      13   0.000000000  -1.000000000   0.000000000
      14   0.666666667  -0.333333333   1.000000000
      15   0.500000000  -0.166666667   0.833333333
      16  -0.333333333  -1.000000000   0.000000000

      Image parallelization. There are  2 images and    76 representations
      The estimated total work is  1512 self-consistent (scf) runs
      I am image number     0 and my work is about  753 scf runs. I calculate: 
      q point number     1, representations:
       0 1 2
      q point number     2, representations:
       0 1 2 3 4
      q point number     3, representations:
       0 1 2 3 4
      q point number     4, representations:
       0 1 2 3 4
      q point number     5, representations:
       0 1 2 3 4
      q point number     6, representations:
       0 1 2 3 4 5 6
      q point number     7, representations:
       0 1 2 3 4 5 6
      q point number     8, representations:
       0 1 2 3 4 5 6
      q point number     9, representations:
       0 1 2 3 4

     Calculation of q =    0.0000000   0.0000000   0.0000000

     default                                                                    

     bravais-lattice index     =            2
     lattice parameter (alat)  =      10.1899  a.u.
     unit-cell volume          =     264.5151 (a.u.)^3
     number of atoms/cell      =            2
     number of atomic types    =            1
     kinetic-energy cut-off    =      70.0000  Ry
     charge density cut-off    =     280.0000  Ry
     convergence threshold     =      1.0E-15
     beta                      =       0.7000
     number of iterations used =            4
     Exchange-correlation= PW
                           (   1   4   0   0   0   0   0)


     celldm(1)=   10.18990  celldm(2)=    0.00000  celldm(3)=    0.00000
     celldm(4)=    0.00000  celldm(5)=    0.00000  celldm(6)=    0.00000

     crystal axes: (cart. coord. in units of alat)
               a(1) = ( -0.5000  0.0000  0.5000 )  
               a(2) = (  0.0000  0.5000  0.5000 )  
               a(3) = ( -0.5000  0.5000  0.0000 )  

     reciprocal axes: (cart. coord. in units 2 pi/alat)
               b(1) = ( -1.0000 -1.0000  1.0000 )  
               b(2) = (  1.0000  1.0000  1.0000 )  
               b(3) = ( -1.0000  1.0000 -1.0000 )  


     Atoms inside the unit cell: 

     Cartesian axes

     site n.  atom      mass           positions (alat units)
        1     Si  28.0855   tau(    1) = (    0.00000    0.00000    0.00000  )
        2     Si  28.0855   tau(    2) = (   -0.25000    0.25000    0.25000  )

     Computing dynamical matrix for 
                    q = (   0.0000000   0.0000000   0.0000000 )
 
     49 Sym.Ops. (with q -> -q+G )


     G cutoff =  736.4420  (   2611 G-vectors)     FFT grid: ( 40, 40, 40)
     number of k points=    28

     PseudoPot. # 1 for Si read from file:
     ./pseudos/Si.nc.UPF
     MD5 check sum: 9e2d726316af3d4752eea8ab0afbb951
     Pseudo is Norm-conserving + core correction, Zval =  4.0
     Generated using ONCVPSP code by D. R. Hamann
     Using radial grid of 1510 points,  6 beta functions with: 
                l(1) =   0
                l(2) =   0
                l(3) =   1
                l(4) =   1
                l(5) =   2
                l(6) =   2

     Mode symmetry, O_h (m-3m)  point group:


     Electric field:
     Dielectric constant
     Born effective charges in two ways 


     Atomic displacements:
     There are    2 irreducible representations

     Representation     1      3 modes -  To be done

     Representation     2      3 modes -  To be done



     Alpha used in Ewald sum =   2.8000
     PHONON       :      0.37s CPU      1.04s WALL


     Electric Fields Calculation

      iter #   1 total cpu time :     2.1 secs   av.it.:   6.5
      thresh= 1.000E-02 alpha_mix =  0.700 |ddv_scf|^2 =  1.151E-07

      iter #   2 total cpu time :     3.0 secs   av.it.:  11.6
      thresh= 3.392E-05 alpha_mix =  0.700 |ddv_scf|^2 =  4.931E-09

      iter #   3 total cpu time :     4.0 secs   av.it.:  11.5
      thresh= 7.022E-06 alpha_mix =  0.700 |ddv_scf|^2 =  5.558E-11

      iter #   4 total cpu time :     4.9 secs   av.it.:  11.8
      thresh= 7.455E-07 alpha_mix =  0.700 |ddv_scf|^2 =  3.297E-13

      iter #   5 total cpu time :     5.7 secs   av.it.:  10.8
      thresh= 5.742E-08 alpha_mix =  0.700 |ddv_scf|^2 =  1.209E-16

     End of electric fields calculation

          Dielectric constant in cartesian axis 

          (      13.312123895       0.000000000       0.000000000 )
          (       0.000000000      13.312123895      -0.000000000 )
          (       0.000000000      -0.000000000      13.312123895 )

          Effective charges (d Force / dE) in cartesian axis without acoustic sum rule applied (asr)

           atom      1   Si Mean Z*:       -0.00677
      Ex  (       -0.00677        0.00000        0.00000 )
      Ey  (        0.00000       -0.00677       -0.00000 )
      Ez  (        0.00000       -0.00000       -0.00677 )
           atom      2   Si Mean Z*:       -0.00677
      Ex  (       -0.00677        0.00000        0.00000 )
      Ey  (        0.00000       -0.00677        0.00000 )
      Ez  (        0.00000        0.00000       -0.00677 )

          Effective charges Sum: Mean:       -0.01355
             -0.01355        0.00000        0.00000
              0.00000       -0.01355       -0.00000
              0.00000       -0.00000       -0.01355

          Effective charges (d Force / dE) in cartesian axis with asr applied: 
           atom      1   Si Mean Z*:        0.00000
      E*x (        0.00000        0.00000       -0.00000 )
      E*y (        0.00000        0.00000       -0.00000 )
      E*z (        0.00000       -0.00000        0.00000 )
           atom      2   Si Mean Z*:       -0.00000
      E*x (        0.00000       -0.00000        0.00000 )
      E*y (       -0.00000       -0.00000        0.00000 )
      E*z (        0.00000        0.00000       -0.00000 )


     Representation #   1 modes #   1   2   3

     Self-consistent Calculation

      iter #   1 total cpu time :     7.7 secs   av.it.:   5.8
      thresh= 1.000E-02 alpha_mix =  0.700 |ddv_scf|^2 =  1.659E-08

      iter #   2 total cpu time :    19.9 secs   av.it.:  11.6
      thresh= 1.288E-05 alpha_mix =  0.700 |ddv_scf|^2 =  3.728E-10

      iter #   3 total cpu time :    21.3 secs   av.it.:  11.6
      thresh= 1.931E-06 alpha_mix =  0.700 |ddv_scf|^2 =  1.391E-11

      iter #   4 total cpu time :    22.8 secs   av.it.:  11.4
      thresh= 3.730E-07 alpha_mix =  0.700 |ddv_scf|^2 =  4.505E-14

      iter #   5 total cpu time :    23.5 secs   av.it.:  11.8
      thresh= 2.123E-08 alpha_mix =  0.700 |ddv_scf|^2 =  2.091E-16

     End of self-consistent calculation

     Convergence has been achieved 


     Representation #   2 modes #   4   5   6

     Self-consistent Calculation

      iter #   1 total cpu time :    24.4 secs   av.it.:   6.0
      thresh= 1.000E-02 alpha_mix =  0.700 |ddv_scf|^2 =  1.197E-08

      iter #   2 total cpu time :    25.4 secs   av.it.:  11.8
      thresh= 1.094E-05 alpha_mix =  0.700 |ddv_scf|^2 =  4.306E-10

      iter #   3 total cpu time :    26.4 secs   av.it.:  11.8
      thresh= 2.075E-06 alpha_mix =  0.700 |ddv_scf|^2 =  1.960E-11

      iter #   4 total cpu time :    27.5 secs   av.it.:  11.7
      thresh= 4.427E-07 alpha_mix =  0.700 |ddv_scf|^2 =  3.508E-14

      iter #   5 total cpu time :    28.2 secs   av.it.:  11.8
      thresh= 1.873E-08 alpha_mix =  0.700 |ddv_scf|^2 =  9.343E-17

     End of self-consistent calculation

     Convergence has been achieved 
 
     Number of q in the star =    1
     List of q in the star:
          1   0.000000000   0.000000000   0.000000000

          Dielectric constant in cartesian axis 

          (      13.312123895       0.000000000       0.000000000 )
          (       0.000000000      13.312123895      -0.000000000 )
          (       0.000000000      -0.000000000      13.312123895 )

          Effective charges (d Force / dE) in cartesian axis without acoustic sum rule applied (asr)

           atom      1   Si Mean Z*:       -0.00677
      Ex  (       -0.00677        0.00000        0.00000 )
      Ey  (        0.00000       -0.00677       -0.00000 )
      Ez  (        0.00000       -0.00000       -0.00677 )
           atom      2   Si Mean Z*:       -0.00677
      Ex  (       -0.00677        0.00000        0.00000 )
      Ey  (        0.00000       -0.00677        0.00000 )
      Ez  (        0.00000        0.00000       -0.00677 )

          Effective charges Sum: Mean:       -0.01355
             -0.01355        0.00000        0.00000
              0.00000       -0.01355       -0.00000
              0.00000       -0.00000       -0.01355

          Effective charges (d Force / dE) in cartesian axis with asr applied: 
           atom      1   Si Mean Z*:        0.00000
      E*x (        0.00000        0.00000       -0.00000 )
      E*y (        0.00000        0.00000       -0.00000 )
      E*z (        0.00000       -0.00000        0.00000 )
           atom      2   Si Mean Z*:       -0.00000
      E*x (        0.00000       -0.00000        0.00000 )
      E*y (       -0.00000       -0.00000        0.00000 )
      E*z (        0.00000        0.00000       -0.00000 )

          Effective charges (d P / du) in cartesian axis 

           atom      1   Si 
      Px  (       -0.00684        0.00000        0.00000 )
      Py  (        0.00000       -0.00684       -0.00000 )
      Pz  (        0.00000       -0.00000       -0.00684 )
           atom      2   Si 
      Px  (       -0.00684       -0.00000        0.00000 )
      Py  (       -0.00000       -0.00684        0.00000 )
      Pz  (       -0.00000       -0.00000       -0.00684 )

     Diagonalizing the dynamical matrix

     q = (    0.000000000   0.000000000   0.000000000 ) 

 **************************************************************************
     freq (    1) =      -0.116265 [THz] =      -3.878183 [cm-1]
     freq (    2) =      -0.116265 [THz] =      -3.878183 [cm-1]
     freq (    3) =      -0.116265 [THz] =      -3.878183 [cm-1]
     freq (    4) =      15.412095 [THz] =     514.092164 [cm-1]
     freq (    5) =      15.412095 [THz] =     514.092164 [cm-1]
     freq (    6) =      15.412095 [THz] =     514.092164 [cm-1]
 **************************************************************************

     Mode symmetry, O_h (m-3m)  point group:

     freq (   1-   3) =         -3.9  [cm-1]   --> T_1u G_15  G_4- I  
     freq (   4-   6) =        514.1  [cm-1]   --> T_2g G_25' G_5+ R  

     Calculation of q =   -0.1666667   0.1666667  -0.1666667

     Subspace diagonalization in iterative solution of the eigenvalue problem:
     one sub-group per band group will be used
     scalapack distributed-memory algorithm (size of sub-group:  2*  2 procs)

 
     Parallelization info
     --------------------
     sticks:   dense  smooth     PW     G-vecs:    dense   smooth      PW
     Min         125     125     39                 2608     2608     461
     Max         126     126     40                 2611     2611     463
     Sum        1003    1003    313                20875    20875    3695
 
     Using Slab Decomposition
 

     Title: 
     default                                                                    


     bravais-lattice index     =            2
     lattice parameter (alat)  =      10.1899  a.u.
     unit-cell volume          =     264.5151 (a.u.)^3
     number of atoms/cell      =            2
     number of atomic types    =            1
     number of electrons       =         8.00
     number of Kohn-Sham states=            4
     kinetic-energy cutoff     =      70.0000  Ry
     charge density cutoff     =     280.0000  Ry
     Exchange-correlation= PW
                           (   1   4   0   0   0   0   0)

     celldm(1)=  10.189905  celldm(2)=   0.000000  celldm(3)=   0.000000
     celldm(4)=   0.000000  celldm(5)=   0.000000  celldm(6)=   0.000000

     crystal axes: (cart. coord. in units of alat)
               a(1) = (  -0.500000   0.000000   0.500000 )  
               a(2) = (   0.000000   0.500000   0.500000 )  
               a(3) = (  -0.500000   0.500000   0.000000 )  

     reciprocal axes: (cart. coord. in units 2 pi/alat)
               b(1) = ( -1.000000 -1.000000  1.000000 )  
               b(2) = (  1.000000  1.000000  1.000000 )  
               b(3) = ( -1.000000  1.000000 -1.000000 )  


     PseudoPot. # 1 for Si read from file:
     ./pseudos/Si.nc.UPF
     MD5 check sum: 9e2d726316af3d4752eea8ab0afbb951
     Pseudo is Norm-conserving + core correction, Zval =  4.0
     Generated using ONCVPSP code by D. R. Hamann
     Using radial grid of 1510 points,  6 beta functions with: 
                l(1) =   0
                l(2) =   0
                l(3) =   1
                l(4) =   1
                l(5) =   2
                l(6) =   2

     atomic species   valence    mass     pseudopotential
        Si             4.00    28.08550     Si( 1.00)

     48 Sym. Ops., with inversion, found



   Cartesian axes

     site n.     atom                  positions (alat units)
         1           Si  tau(   1) = (   0.0000000   0.0000000   0.0000000  )
         2           Si  tau(   2) = (  -0.2500000   0.2500000   0.2500000  )

     number of k points=   364

     Number of k-points >= 100: set verbosity='high' to print them.

     Dense  grid:    20875 G-vectors     FFT dimensions: (  40,  40,  40)

     Estimated max dynamical RAM per process >       2.62 MB

     Estimated total dynamical RAM >      62.90 MB

     The potential is recalculated from file :
     /fastscratch/tsievers/QE_TMP_DIR/_ph0/si_ph_bench_poolsize_8_n_procs_48_0.save/charge-density

     Starting wfcs are    8 atomic wfcs

     Band Structure Calculation
     Davidson diagonalization with overlap

     ethr =  1.25E-10,  avg # of iterations = 12.9

     total cpu time spent up to now is        9.5 secs

     End of band structure calculation

     Number of k-points >= 100: set verbosity='high' to print the bands.

     highest occupied level (ev):     6.1106

     Writing config to output data dir /fastscratch/tsievers/QE_TMP_DIR/_ph0/si_ph_bench_poolsize_8_n_procs_48_0.save/

     default                                                                    

     bravais-lattice index     =            2
     lattice parameter (alat)  =      10.1899  a.u.
     unit-cell volume          =     264.5151 (a.u.)^3
     number of atoms/cell      =            2
     number of atomic types    =            1
     kinetic-energy cut-off    =      70.0000  Ry
     charge density cut-off    =     280.0000  Ry
     convergence threshold     =      1.0E-15
     beta                      =       0.7000
     number of iterations used =            4
     Exchange-correlation= PW
                           (   1   4   0   0   0   0   0)


     celldm(1)=   10.18990  celldm(2)=    0.00000  celldm(3)=    0.00000
     celldm(4)=    0.00000  celldm(5)=    0.00000  celldm(6)=    0.00000

     crystal axes: (cart. coord. in units of alat)
               a(1) = ( -0.5000  0.0000  0.5000 )  
               a(2) = (  0.0000  0.5000  0.5000 )  
               a(3) = ( -0.5000  0.5000  0.0000 )  

     reciprocal axes: (cart. coord. in units 2 pi/alat)
               b(1) = ( -1.0000 -1.0000  1.0000 )  
               b(2) = (  1.0000  1.0000  1.0000 )  
               b(3) = ( -1.0000  1.0000 -1.0000 )  


     Atoms inside the unit cell: 

     Cartesian axes

     site n.  atom      mass           positions (alat units)
        1     Si  28.0855   tau(    1) = (    0.00000    0.00000    0.00000  )
        2     Si  28.0855   tau(    2) = (   -0.25000    0.25000    0.25000  )

     Computing dynamical matrix for 
                    q = (  -0.1666667   0.1666667  -0.1666667 )
 
      6 Sym.Ops. (no q -> -q+G )


     G cutoff =  736.4420  (   2611 G-vectors)     FFT grid: ( 40, 40, 40)
     number of k points=   364

     PseudoPot. # 1 for Si read from file:
     ./pseudos/Si.nc.UPF
     MD5 check sum: 9e2d726316af3d4752eea8ab0afbb951
     Pseudo is Norm-conserving + core correction, Zval =  4.0
     Generated using ONCVPSP code by D. R. Hamann
     Using radial grid of 1510 points,  6 beta functions with: 
                l(1) =   0
                l(2) =   0
                l(3) =   1
                l(4) =   1
                l(5) =   2
                l(6) =   2

     Mode symmetry, C_3v (3m)   point group:


     Atomic displacements:
     There are    4 irreducible representations

     Representation     1      1 modes -  To be done

     Representation     2      1 modes -  To be done

     Representation     3      2 modes -  To be done

     Representation     4      2 modes -  To be done



     Alpha used in Ewald sum =   2.8000
     PHONON       :     32.37s CPU     40.93s WALL



     Representation #   1 mode #   1

     Self-consistent Calculation

      iter #   1 total cpu time :    41.6 secs   av.it.:   6.6
      thresh= 1.000E-02 alpha_mix =  0.700 |ddv_scf|^2 =  1.552E-03

      iter #   2 total cpu time :    42.5 secs   av.it.:   8.8
      thresh= 3.939E-03 alpha_mix =  0.700 |ddv_scf|^2 =  5.085E-02

      iter #   3 total cpu time :    43.3 secs   av.it.:   7.7
      thresh= 1.000E-02 alpha_mix =  0.700 |ddv_scf|^2 =  4.142E-07

      iter #   4 total cpu time :    44.3 secs   av.it.:   9.1
      thresh= 6.435E-05 alpha_mix =  0.700 |ddv_scf|^2 =  1.353E-08

      iter #   5 total cpu time :    45.3 secs   av.it.:   9.4
      thresh= 1.163E-05 alpha_mix =  0.700 |ddv_scf|^2 =  9.219E-10

      iter #   6 total cpu time :    46.1 secs   av.it.:   8.2
      thresh= 3.036E-06 alpha_mix =  0.700 |ddv_scf|^2 =  1.588E-09

      iter #   7 total cpu time :    47.0 secs   av.it.:   8.0
      thresh= 3.984E-06 alpha_mix =  0.700 |ddv_scf|^2 =  9.316E-11

      iter #   8 total cpu time :    48.1 secs   av.it.:   8.4
      thresh= 9.652E-07 alpha_mix =  0.700 |ddv_scf|^2 =  7.406E-13

      iter #   9 total cpu time :    49.1 secs   av.it.:   8.2
      thresh= 8.606E-08 alpha_mix =  0.700 |ddv_scf|^2 =  1.673E-14

      iter #  10 total cpu time :    49.9 secs   av.it.:   8.5
      thresh= 1.293E-08 alpha_mix =  0.700 |ddv_scf|^2 =  1.547E-15

      iter #  11 total cpu time :    50.9 secs   av.it.:   9.0
      thresh= 3.933E-09 alpha_mix =  0.700 |ddv_scf|^2 =  2.337E-16

     End of self-consistent calculation

     Convergence has been achieved 


     Representation #   2 mode #   2

     Self-consistent Calculation

      iter #   1 total cpu time :    52.1 secs   av.it.:   6.6
      thresh= 1.000E-02 alpha_mix =  0.700 |ddv_scf|^2 =  1.552E-03

      iter #   2 total cpu time :    52.9 secs   av.it.:   8.8
      thresh= 3.939E-03 alpha_mix =  0.700 |ddv_scf|^2 =  5.085E-02

      iter #   3 total cpu time :    54.5 secs   av.it.:   7.7
      thresh= 1.000E-02 alpha_mix =  0.700 |ddv_scf|^2 =  4.142E-07

      iter #   4 total cpu time :    55.4 secs   av.it.:   9.1
      thresh= 6.435E-05 alpha_mix =  0.700 |ddv_scf|^2 =  1.353E-08

      iter #   5 total cpu time :    56.3 secs   av.it.:   9.4
      thresh= 1.163E-05 alpha_mix =  0.700 |ddv_scf|^2 =  9.221E-10

      iter #   6 total cpu time :    57.3 secs   av.it.:   8.2
      thresh= 3.037E-06 alpha_mix =  0.700 |ddv_scf|^2 =  1.587E-09

      iter #   7 total cpu time :    58.4 secs   av.it.:   8.0
      thresh= 3.984E-06 alpha_mix =  0.700 |ddv_scf|^2 =  9.316E-11

      iter #   8 total cpu time :    59.6 secs   av.it.:   8.4
      thresh= 9.652E-07 alpha_mix =  0.700 |ddv_scf|^2 =  7.405E-13

      iter #   9 total cpu time :    60.6 secs   av.it.:   8.2
      thresh= 8.605E-08 alpha_mix =  0.700 |ddv_scf|^2 =  1.673E-14

      iter #  10 total cpu time :    61.4 secs   av.it.:   8.5
      thresh= 1.293E-08 alpha_mix =  0.700 |ddv_scf|^2 =  1.547E-15

      iter #  11 total cpu time :    62.2 secs   av.it.:   9.0
      thresh= 3.933E-09 alpha_mix =  0.700 |ddv_scf|^2 =  2.337E-16

     End of self-consistent calculation

     Convergence has been achieved 


     Representation #   3 modes #   3   4

     Self-consistent Calculation

      iter #   1 total cpu time :    63.7 secs   av.it.:   6.1
      thresh= 1.000E-02 alpha_mix =  0.700 |ddv_scf|^2 =  4.048E-08

      iter #   2 total cpu time :    65.8 secs   av.it.:  11.4
      thresh= 2.012E-05 alpha_mix =  0.700 |ddv_scf|^2 =  1.801E-09

      iter #   3 total cpu time :    67.8 secs   av.it.:  11.3
      thresh= 4.244E-06 alpha_mix =  0.700 |ddv_scf|^2 =  4.704E-11

      iter #   4 total cpu time :    69.8 secs   av.it.:  11.3
      thresh= 6.859E-07 alpha_mix =  0.700 |ddv_scf|^2 =  5.427E-13

      iter #   5 total cpu time :    71.8 secs   av.it.:  11.3
      thresh= 7.367E-08 alpha_mix =  0.700 |ddv_scf|^2 =  1.152E-14

      iter #   6 total cpu time :    74.9 secs   av.it.:  11.6
      thresh= 1.073E-08 alpha_mix =  0.700 |ddv_scf|^2 =  5.228E-17

     End of self-consistent calculation

     Convergence has been achieved 


     Representation #   4 modes #   5   6

     Self-consistent Calculation

      iter #   1 total cpu time :    77.3 secs   av.it.:   6.1
      thresh= 1.000E-02 alpha_mix =  0.700 |ddv_scf|^2 =  4.048E-08

      iter #   2 total cpu time :    79.4 secs   av.it.:  11.3
      thresh= 2.012E-05 alpha_mix =  0.700 |ddv_scf|^2 =  1.802E-09

      iter #   3 total cpu time :    81.8 secs   av.it.:  11.3
      thresh= 4.245E-06 alpha_mix =  0.700 |ddv_scf|^2 =  4.704E-11

      iter #   4 total cpu time :    83.8 secs   av.it.:  11.3
      thresh= 6.859E-07 alpha_mix =  0.700 |ddv_scf|^2 =  5.430E-13

      iter #   5 total cpu time :    85.8 secs   av.it.:  11.3
      thresh= 7.369E-08 alpha_mix =  0.700 |ddv_scf|^2 =  1.153E-14

      iter #   6 total cpu time :    87.8 secs   av.it.:  11.6
      thresh= 1.074E-08 alpha_mix =  0.700 |ddv_scf|^2 =  5.226E-17

     End of self-consistent calculation

     Convergence has been achieved 
 
     Number of q in the star =    8
     List of q in the star:
          1  -0.166666667   0.166666667  -0.166666667
          2   0.166666667   0.166666667   0.166666667
          3  -0.166666667  -0.166666667  -0.166666667
          4   0.166666667  -0.166666667   0.166666667
          5   0.166666667  -0.166666667  -0.166666667
          6   0.166666667   0.166666667  -0.166666667
          7  -0.166666667  -0.166666667   0.166666667
          8  -0.166666667   0.166666667   0.166666667

     Diagonalizing the dynamical matrix

     q = (   -0.166666667   0.166666667  -0.166666667 ) 

 **************************************************************************
     freq (    1) =       2.202734 [THz] =      73.475287 [cm-1]
     freq (    2) =       2.202734 [THz] =      73.475287 [cm-1]
     freq (    3) =       4.748081 [THz] =     158.378932 [cm-1]
     freq (    4) =      15.023906 [THz] =     501.143569 [cm-1]
     freq (    5) =      15.065886 [THz] =     502.543871 [cm-1]
     freq (    6) =      15.065886 [THz] =     502.543871 [cm-1]
 **************************************************************************

     Mode symmetry, C_3v (3m)   point group:

     freq (   1-   2) =         73.5  [cm-1]   --> E    L_3           
     freq (   3-   3) =        158.4  [cm-1]   --> A_1  L_1           
     freq (   4-   4) =        501.1  [cm-1]   --> A_1  L_1           
     freq (   5-   6) =        502.5  [cm-1]   --> E    L_3           

     Calculation of q =   -0.3333333   0.3333333  -0.3333333
 
     Parallelization info
     --------------------
     sticks:   dense  smooth     PW     G-vecs:    dense   smooth      PW
     Min         125     125     39                 2608     2608     479
     Max         126     126     40                 2611     2611     484
     Sum        1003    1003    313                20875    20875    3839
 
     Using Slab Decomposition
 

     Title: 
     default                                                                    


     bravais-lattice index     =            2
     lattice parameter (alat)  =      10.1899  a.u.
     unit-cell volume          =     264.5151 (a.u.)^3
     number of atoms/cell      =            2
     number of atomic types    =            1
     number of electrons       =         8.00
     number of Kohn-Sham states=            4
     kinetic-energy cutoff     =      70.0000  Ry
     charge density cutoff     =     280.0000  Ry
     Exchange-correlation= PW
                           (   1   4   0   0   0   0   0)

     celldm(1)=  10.189905  celldm(2)=   0.000000  celldm(3)=   0.000000
     celldm(4)=   0.000000  celldm(5)=   0.000000  celldm(6)=   0.000000

     crystal axes: (cart. coord. in units of alat)
               a(1) = (  -0.500000   0.000000   0.500000 )  
               a(2) = (   0.000000   0.500000   0.500000 )  
               a(3) = (  -0.500000   0.500000   0.000000 )  

     reciprocal axes: (cart. coord. in units 2 pi/alat)
               b(1) = ( -1.000000 -1.000000  1.000000 )  
               b(2) = (  1.000000  1.000000  1.000000 )  
               b(3) = ( -1.000000  1.000000 -1.000000 )  


     PseudoPot. # 1 for Si read from file:
     ./pseudos/Si.nc.UPF
     MD5 check sum: 9e2d726316af3d4752eea8ab0afbb951
     Pseudo is Norm-conserving + core correction, Zval =  4.0
     Generated using ONCVPSP code by D. R. Hamann
     Using radial grid of 1510 points,  6 beta functions with: 
                l(1) =   0
                l(2) =   0
                l(3) =   1
                l(4) =   1
                l(5) =   2
                l(6) =   2

     atomic species   valence    mass     pseudopotential
        Si             4.00    28.08550     Si( 1.00)

     48 Sym. Ops., with inversion, found



   Cartesian axes

     site n.     atom                  positions (alat units)
         1           Si  tau(   1) = (   0.0000000   0.0000000   0.0000000  )
         2           Si  tau(   2) = (  -0.2500000   0.2500000   0.2500000  )

     number of k points=   364

     Number of k-points >= 100: set verbosity='high' to print them.

     Dense  grid:    20875 G-vectors     FFT dimensions: (  40,  40,  40)

     Estimated max dynamical RAM per process >       2.63 MB

     Estimated total dynamical RAM >      63.22 MB

     The potential is recalculated from file :
     /fastscratch/tsievers/QE_TMP_DIR/_ph0/si_ph_bench_poolsize_8_n_procs_48_0.save/charge-density

     Starting wfcs are    8 atomic wfcs

     Band Structure Calculation
     Davidson diagonalization with overlap

     ethr =  1.25E-10,  avg # of iterations = 12.9

     total cpu time spent up to now is       15.1 secs

     End of band structure calculation

     Number of k-points >= 100: set verbosity='high' to print the bands.

     highest occupied level (ev):     6.1106

     Writing config to output data dir /fastscratch/tsievers/QE_TMP_DIR/_ph0/si_ph_bench_poolsize_8_n_procs_48_0.save/

     default                                                                    

     bravais-lattice index     =            2
     lattice parameter (alat)  =      10.1899  a.u.
     unit-cell volume          =     264.5151 (a.u.)^3
     number of atoms/cell      =            2
     number of atomic types    =            1
     kinetic-energy cut-off    =      70.0000  Ry
     charge density cut-off    =     280.0000  Ry
     convergence threshold     =      1.0E-15
     beta                      =       0.7000
     number of iterations used =            4
     Exchange-correlation= PW
                           (   1   4   0   0   0   0   0)


     celldm(1)=   10.18990  celldm(2)=    0.00000  celldm(3)=    0.00000
     celldm(4)=    0.00000  celldm(5)=    0.00000  celldm(6)=    0.00000

     crystal axes: (cart. coord. in units of alat)
               a(1) = ( -0.5000  0.0000  0.5000 )  
               a(2) = (  0.0000  0.5000  0.5000 )  
               a(3) = ( -0.5000  0.5000  0.0000 )  

     reciprocal axes: (cart. coord. in units 2 pi/alat)
               b(1) = ( -1.0000 -1.0000  1.0000 )  
               b(2) = (  1.0000  1.0000  1.0000 )  
               b(3) = ( -1.0000  1.0000 -1.0000 )  


     Atoms inside the unit cell: 

     Cartesian axes

     site n.  atom      mass           positions (alat units)
        1     Si  28.0855   tau(    1) = (    0.00000    0.00000    0.00000  )
        2     Si  28.0855   tau(    2) = (   -0.25000    0.25000    0.25000  )

     Computing dynamical matrix for 
                    q = (  -0.3333333   0.3333333  -0.3333333 )
 
      6 Sym.Ops. (no q -> -q+G )


     G cutoff =  736.4420  (   2611 G-vectors)     FFT grid: ( 40, 40, 40)
     number of k points=   364

     PseudoPot. # 1 for Si read from file:
     ./pseudos/Si.nc.UPF
     MD5 check sum: 9e2d726316af3d4752eea8ab0afbb951
     Pseudo is Norm-conserving + core correction, Zval =  4.0
     Generated using ONCVPSP code by D. R. Hamann
     Using radial grid of 1510 points,  6 beta functions with: 
                l(1) =   0
                l(2) =   0
                l(3) =   1
                l(4) =   1
                l(5) =   2
                l(6) =   2

     Mode symmetry, C_3v (3m)   point group:


     Atomic displacements:
     There are    4 irreducible representations

     Representation     1      1 modes -  To be done

     Representation     2      1 modes -  To be done

     Representation     3      2 modes -  To be done

     Representation     4      2 modes -  To be done



     Alpha used in Ewald sum =   2.8000
     PHONON       :   1m17.19s CPU   1m34.75s WALL



     Representation #   1 mode #   1

     Self-consistent Calculation

      iter #   1 total cpu time :    95.4 secs   av.it.:   6.5
      thresh= 1.000E-02 alpha_mix =  0.700 |ddv_scf|^2 =  9.826E-05

      iter #   2 total cpu time :    96.3 secs   av.it.:   9.7
      thresh= 9.913E-04 alpha_mix =  0.700 |ddv_scf|^2 =  7.842E-04

      iter #   3 total cpu time :    97.4 secs   av.it.:   8.3
      thresh= 2.800E-03 alpha_mix =  0.700 |ddv_scf|^2 =  1.443E-07

      iter #   4 total cpu time :    98.3 secs   av.it.:   9.8
      thresh= 3.799E-05 alpha_mix =  0.700 |ddv_scf|^2 =  2.931E-09

      iter #   5 total cpu time :    99.4 secs   av.it.:   9.9
      thresh= 5.414E-06 alpha_mix =  0.700 |ddv_scf|^2 =  3.098E-11

      iter #   6 total cpu time :   100.6 secs   av.it.:  10.4
      thresh= 5.566E-07 alpha_mix =  0.700 |ddv_scf|^2 =  3.143E-12

      iter #   7 total cpu time :   101.6 secs   av.it.:  10.3
      thresh= 1.773E-07 alpha_mix =  0.700 |ddv_scf|^2 =  2.058E-12

      iter #   8 total cpu time :   102.8 secs   av.it.:   9.4
      thresh= 1.435E-07 alpha_mix =  0.700 |ddv_scf|^2 =  2.462E-12

      iter #   9 total cpu time :   103.9 secs   av.it.:   9.0
      thresh= 1.569E-07 alpha_mix =  0.700 |ddv_scf|^2 =  2.983E-13

      iter #  10 total cpu time :   104.7 secs   av.it.:   8.9
      thresh= 5.461E-08 alpha_mix =  0.700 |ddv_scf|^2 =  1.743E-15

      iter #  11 total cpu time :   105.7 secs   av.it.:   9.6
      thresh= 4.175E-09 alpha_mix =  0.700 |ddv_scf|^2 =  1.675E-16

     End of self-consistent calculation

     Convergence has been achieved 


     Representation #   2 mode #   2

     Self-consistent Calculation

      iter #   1 total cpu time :   106.6 secs   av.it.:   6.5
      thresh= 1.000E-02 alpha_mix =  0.700 |ddv_scf|^2 =  9.826E-05

      iter #   2 total cpu time :   108.1 secs   av.it.:   9.7
      thresh= 9.913E-04 alpha_mix =  0.700 |ddv_scf|^2 =  7.842E-04

      iter #   3 total cpu time :   109.3 secs   av.it.:   8.3
      thresh= 2.800E-03 alpha_mix =  0.700 |ddv_scf|^2 =  1.443E-07

      iter #   4 total cpu time :   110.7 secs   av.it.:   9.8
      thresh= 3.799E-05 alpha_mix =  0.700 |ddv_scf|^2 =  2.931E-09

      iter #   5 total cpu time :   111.6 secs   av.it.:   9.9
      thresh= 5.414E-06 alpha_mix =  0.700 |ddv_scf|^2 =  3.098E-11

      iter #   6 total cpu time :   112.5 secs   av.it.:  10.4
      thresh= 5.566E-07 alpha_mix =  0.700 |ddv_scf|^2 =  3.142E-12

      iter #   7 total cpu time :   113.8 secs   av.it.:  10.3
      thresh= 1.773E-07 alpha_mix =  0.700 |ddv_scf|^2 =  2.056E-12

      iter #   8 total cpu time :   114.9 secs   av.it.:   9.4
      thresh= 1.434E-07 alpha_mix =  0.700 |ddv_scf|^2 =  2.461E-12

      iter #   9 total cpu time :   116.0 secs   av.it.:   9.0
      thresh= 1.569E-07 alpha_mix =  0.700 |ddv_scf|^2 =  2.981E-13

      iter #  10 total cpu time :   116.9 secs   av.it.:   8.9
      thresh= 5.460E-08 alpha_mix =  0.700 |ddv_scf|^2 =  1.741E-15

      iter #  11 total cpu time :   117.8 secs   av.it.:   9.6
      thresh= 4.172E-09 alpha_mix =  0.700 |ddv_scf|^2 =  1.674E-16

     End of self-consistent calculation

     Convergence has been achieved 


     Representation #   3 modes #   3   4

     Self-consistent Calculation

      iter #   1 total cpu time :   120.2 secs   av.it.:   6.1
      thresh= 1.000E-02 alpha_mix =  0.700 |ddv_scf|^2 =  5.513E-08

      iter #   2 total cpu time :   122.2 secs   av.it.:  11.4
      thresh= 2.348E-05 alpha_mix =  0.700 |ddv_scf|^2 =  3.819E-09

      iter #   3 total cpu time :   124.2 secs   av.it.:  11.2
      thresh= 6.180E-06 alpha_mix =  0.700 |ddv_scf|^2 =  5.530E-11

      iter #   4 total cpu time :   126.2 secs   av.it.:  11.3
      thresh= 7.436E-07 alpha_mix =  0.700 |ddv_scf|^2 =  5.546E-13

      iter #   5 total cpu time :   128.3 secs   av.it.:  11.3
      thresh= 7.447E-08 alpha_mix =  0.700 |ddv_scf|^2 =  1.079E-14

      iter #   6 total cpu time :   133.5 secs   av.it.:  11.5
      thresh= 1.039E-08 alpha_mix =  0.700 |ddv_scf|^2 =  7.357E-17

     End of self-consistent calculation

     Convergence has been achieved 


     Representation #   4 modes #   5   6

     Self-consistent Calculation

      iter #   1 total cpu time :   135.6 secs   av.it.:   6.1
      thresh= 1.000E-02 alpha_mix =  0.700 |ddv_scf|^2 =  5.515E-08

      iter #   2 total cpu time :   137.7 secs   av.it.:  11.3
      thresh= 2.348E-05 alpha_mix =  0.700 |ddv_scf|^2 =  3.825E-09

      iter #   3 total cpu time :   139.7 secs   av.it.:  11.2
      thresh= 6.184E-06 alpha_mix =  0.700 |ddv_scf|^2 =  5.527E-11

      iter #   4 total cpu time :   141.7 secs   av.it.:  11.3
      thresh= 7.435E-07 alpha_mix =  0.700 |ddv_scf|^2 =  5.545E-13

      iter #   5 total cpu time :   143.7 secs   av.it.:  11.3
      thresh= 7.446E-08 alpha_mix =  0.700 |ddv_scf|^2 =  1.079E-14

      iter #   6 total cpu time :   145.6 secs   av.it.:  11.5
      thresh= 1.039E-08 alpha_mix =  0.700 |ddv_scf|^2 =  7.352E-17

     End of self-consistent calculation

     Convergence has been achieved 
 
     Number of q in the star =    8
     List of q in the star:
          1  -0.333333333   0.333333333  -0.333333333
          2   0.333333333   0.333333333   0.333333333
          3  -0.333333333  -0.333333333  -0.333333333
          4   0.333333333  -0.333333333   0.333333333
          5   0.333333333  -0.333333333  -0.333333333
          6   0.333333333   0.333333333  -0.333333333
          7  -0.333333333  -0.333333333   0.333333333
          8  -0.333333333   0.333333333   0.333333333

     Diagonalizing the dynamical matrix

     q = (   -0.333333333   0.333333333  -0.333333333 ) 

 **************************************************************************
     freq (    1) =       3.044092 [THz] =     101.539971 [cm-1]
     freq (    2) =       3.044092 [THz] =     101.539971 [cm-1]
     freq (    3) =       8.747640 [THz] =     291.789861 [cm-1]
     freq (    4) =      13.857027 [THz] =     462.220673 [cm-1]
     freq (    5) =      14.763297 [THz] =     492.450565 [cm-1]
     freq (    6) =      14.763297 [THz] =     492.450565 [cm-1]
 **************************************************************************

     Mode symmetry, C_3v (3m)   point group:

     freq (   1-   2) =        101.5  [cm-1]   --> E    L_3           
     freq (   3-   3) =        291.8  [cm-1]   --> A_1  L_1           
     freq (   4-   4) =        462.2  [cm-1]   --> A_1  L_1           
     freq (   5-   6) =        492.5  [cm-1]   --> E    L_3           

     Calculation of q =    0.5000000  -0.5000000   0.5000000
 
     Parallelization info
     --------------------
     sticks:   dense  smooth     PW     G-vecs:    dense   smooth      PW
     Min         125     125     42                 2608     2608     501
     Max         126     126     43                 2611     2611     503
     Sum        1003    1003    337                20875    20875    4015
 
     Using Slab Decomposition
 

     Title: 
     default                                                                    


     bravais-lattice index     =            2
     lattice parameter (alat)  =      10.1899  a.u.
     unit-cell volume          =     264.5151 (a.u.)^3
     number of atoms/cell      =            2
     number of atomic types    =            1
     number of electrons       =         8.00
     number of Kohn-Sham states=            4
     kinetic-energy cutoff     =      70.0000  Ry
     charge density cutoff     =     280.0000  Ry
     Exchange-correlation= PW
                           (   1   4   0   0   0   0   0)

     celldm(1)=  10.189905  celldm(2)=   0.000000  celldm(3)=   0.000000
     celldm(4)=   0.000000  celldm(5)=   0.000000  celldm(6)=   0.000000

     crystal axes: (cart. coord. in units of alat)
               a(1) = (  -0.500000   0.000000   0.500000 )  
               a(2) = (   0.000000   0.500000   0.500000 )  
               a(3) = (  -0.500000   0.500000   0.000000 )  

     reciprocal axes: (cart. coord. in units 2 pi/alat)
               b(1) = ( -1.000000 -1.000000  1.000000 )  
               b(2) = (  1.000000  1.000000  1.000000 )  
               b(3) = ( -1.000000  1.000000 -1.000000 )  


     PseudoPot. # 1 for Si read from file:
     ./pseudos/Si.nc.UPF
     MD5 check sum: 9e2d726316af3d4752eea8ab0afbb951
     Pseudo is Norm-conserving + core correction, Zval =  4.0
     Generated using ONCVPSP code by D. R. Hamann
     Using radial grid of 1510 points,  6 beta functions with: 
                l(1) =   0
                l(2) =   0
                l(3) =   1
                l(4) =   1
                l(5) =   2
                l(6) =   2

     atomic species   valence    mass     pseudopotential
        Si             4.00    28.08550     Si( 1.00)

     48 Sym. Ops., with inversion, found



   Cartesian axes

     site n.     atom                  positions (alat units)
         1           Si  tau(   1) = (   0.0000000   0.0000000   0.0000000  )
         2           Si  tau(   2) = (  -0.2500000   0.2500000   0.2500000  )

     number of k points=   182

     Number of k-points >= 100: set verbosity='high' to print them.

     Dense  grid:    20875 G-vectors     FFT dimensions: (  40,  40,  40)

     Estimated max dynamical RAM per process >       2.65 MB

     Estimated total dynamical RAM >      63.57 MB

     The potential is recalculated from file :
     /fastscratch/tsievers/QE_TMP_DIR/_ph0/si_ph_bench_poolsize_8_n_procs_48_0.save/charge-density

     Starting wfcs are    8 atomic wfcs

     Band Structure Calculation
     Davidson diagonalization with overlap

     ethr =  1.25E-10,  avg # of iterations = 12.9

     total cpu time spent up to now is       17.6 secs

     End of band structure calculation

     Number of k-points >= 100: set verbosity='high' to print the bands.

     highest occupied level (ev):     6.1106

     Writing config to output data dir /fastscratch/tsievers/QE_TMP_DIR/_ph0/si_ph_bench_poolsize_8_n_procs_48_0.save/

     default                                                                    

     bravais-lattice index     =            2
     lattice parameter (alat)  =      10.1899  a.u.
     unit-cell volume          =     264.5151 (a.u.)^3
     number of atoms/cell      =            2
     number of atomic types    =            1
     kinetic-energy cut-off    =      70.0000  Ry
     charge density cut-off    =     280.0000  Ry
     convergence threshold     =      1.0E-15
     beta                      =       0.7000
     number of iterations used =            4
     Exchange-correlation= PW
                           (   1   4   0   0   0   0   0)


     celldm(1)=   10.18990  celldm(2)=    0.00000  celldm(3)=    0.00000
     celldm(4)=    0.00000  celldm(5)=    0.00000  celldm(6)=    0.00000

     crystal axes: (cart. coord. in units of alat)
               a(1) = ( -0.5000  0.0000  0.5000 )  
               a(2) = (  0.0000  0.5000  0.5000 )  
               a(3) = ( -0.5000  0.5000  0.0000 )  

     reciprocal axes: (cart. coord. in units 2 pi/alat)
               b(1) = ( -1.0000 -1.0000  1.0000 )  
               b(2) = (  1.0000  1.0000  1.0000 )  
               b(3) = ( -1.0000  1.0000 -1.0000 )  


     Atoms inside the unit cell: 

     Cartesian axes

     site n.  atom      mass           positions (alat units)
        1     Si  28.0855   tau(    1) = (    0.00000    0.00000    0.00000  )
        2     Si  28.0855   tau(    2) = (   -0.25000    0.25000    0.25000  )

     Computing dynamical matrix for 
                    q = (   0.5000000  -0.5000000   0.5000000 )
 
     13 Sym.Ops. (with q -> -q+G )


     G cutoff =  736.4420  (   2611 G-vectors)     FFT grid: ( 40, 40, 40)
     number of k points=   182

     PseudoPot. # 1 for Si read from file:
     ./pseudos/Si.nc.UPF
     MD5 check sum: 9e2d726316af3d4752eea8ab0afbb951
     Pseudo is Norm-conserving + core correction, Zval =  4.0
     Generated using ONCVPSP code by D. R. Hamann
     Using radial grid of 1510 points,  6 beta functions with: 
                l(1) =   0
                l(2) =   0
                l(3) =   1
                l(4) =   1
                l(5) =   2
                l(6) =   2


     Atomic displacements:
     There are    4 irreducible representations

     Representation     1      1 modes -  To be done

     Representation     2      1 modes -  To be done

     Representation     3      2 modes -  To be done

     Representation     4      2 modes -  To be done



     Alpha used in Ewald sum =   2.8000
     PHONON       :   2m 2.12s CPU   2m29.34s WALL



     Representation #   1 mode #   1

     Self-consistent Calculation

      iter #   1 total cpu time :   149.7 secs   av.it.:   5.8
      thresh= 1.000E-02 alpha_mix =  0.700 |ddv_scf|^2 =  3.143E-06

      iter #   2 total cpu time :   150.8 secs   av.it.:   9.9
      thresh= 1.773E-04 alpha_mix =  0.700 |ddv_scf|^2 =  2.900E-06

      iter #   3 total cpu time :   151.5 secs   av.it.:   9.2
      thresh= 1.703E-04 alpha_mix =  0.700 |ddv_scf|^2 =  3.869E-10

      iter #   4 total cpu time :   152.0 secs   av.it.:  10.1
      thresh= 1.967E-06 alpha_mix =  0.700 |ddv_scf|^2 =  6.642E-12

      iter #   5 total cpu time :   152.6 secs   av.it.:   9.7
      thresh= 2.577E-07 alpha_mix =  0.700 |ddv_scf|^2 =  9.565E-14

      iter #   6 total cpu time :   153.1 secs   av.it.:   9.7
      thresh= 3.093E-08 alpha_mix =  0.700 |ddv_scf|^2 =  1.254E-15

      iter #   7 total cpu time :   153.6 secs   av.it.:   9.7
      thresh= 3.542E-09 alpha_mix =  0.700 |ddv_scf|^2 =  4.296E-18

     End of self-consistent calculation

     Convergence has been achieved 


     Representation #   2 mode #   2

     Self-consistent Calculation

      iter #   1 total cpu time :   154.1 secs   av.it.:   6.7
      thresh= 1.000E-02 alpha_mix =  0.700 |ddv_scf|^2 =  4.802E-05

      iter #   2 total cpu time :   154.7 secs   av.it.:  10.0
      thresh= 6.930E-04 alpha_mix =  0.700 |ddv_scf|^2 =  1.569E-04

      iter #   3 total cpu time :   155.3 secs   av.it.:   9.0
      thresh= 1.253E-03 alpha_mix =  0.700 |ddv_scf|^2 =  9.297E-09

      iter #   4 total cpu time :   155.8 secs   av.it.:   9.7
      thresh= 9.642E-06 alpha_mix =  0.700 |ddv_scf|^2 =  1.945E-10

      iter #   5 total cpu time :   156.4 secs   av.it.:  10.3
      thresh= 1.395E-06 alpha_mix =  0.700 |ddv_scf|^2 =  9.630E-12

      iter #   6 total cpu time :   156.9 secs   av.it.:  10.1
      thresh= 3.103E-07 alpha_mix =  0.700 |ddv_scf|^2 =  2.662E-13

      iter #   7 total cpu time :   157.4 secs   av.it.:   9.4
      thresh= 5.159E-08 alpha_mix =  0.700 |ddv_scf|^2 =  7.472E-17

     End of self-consistent calculation

     Convergence has been achieved 


     Representation #   3 modes #   3   4

     Self-consistent Calculation

      iter #   1 total cpu time :   158.2 secs   av.it.:   6.1
      thresh= 1.000E-02 alpha_mix =  0.700 |ddv_scf|^2 =  1.110E-07

      iter #   2 total cpu time :   159.6 secs   av.it.:  11.2
      thresh= 3.331E-05 alpha_mix =  0.700 |ddv_scf|^2 =  9.409E-09

      iter #   3 total cpu time :   160.7 secs   av.it.:  11.1
      thresh= 9.700E-06 alpha_mix =  0.700 |ddv_scf|^2 =  6.298E-11

      iter #   4 total cpu time :   161.9 secs   av.it.:  11.1
      thresh= 7.936E-07 alpha_mix =  0.700 |ddv_scf|^2 =  7.041E-14

      iter #   5 total cpu time :   162.9 secs   av.it.:  11.3
      thresh= 2.654E-08 alpha_mix =  0.700 |ddv_scf|^2 =  9.273E-16

     End of self-consistent calculation

     Convergence has been achieved 


     Representation #   4 modes #   5   6

     Self-consistent Calculation

      iter #   1 total cpu time :   163.8 secs   av.it.:   5.5
      thresh= 1.000E-02 alpha_mix =  0.700 |ddv_scf|^2 =  1.260E-08

      iter #   2 total cpu time :   164.9 secs   av.it.:  11.2
      thresh= 1.122E-05 alpha_mix =  0.700 |ddv_scf|^2 =  3.303E-10

      iter #   3 total cpu time :   166.1 secs   av.it.:  11.2
      thresh= 1.817E-06 alpha_mix =  0.700 |ddv_scf|^2 =  2.031E-11

      iter #   4 total cpu time :   167.2 secs   av.it.:  11.2
      thresh= 4.506E-07 alpha_mix =  0.700 |ddv_scf|^2 =  8.683E-14

      iter #   5 total cpu time :   168.4 secs   av.it.:  11.2
      thresh= 2.947E-08 alpha_mix =  0.700 |ddv_scf|^2 =  1.388E-15

      iter #   6 total cpu time :   169.4 secs   av.it.:  11.2
      thresh= 3.725E-09 alpha_mix =  0.700 |ddv_scf|^2 =  2.924E-18

     End of self-consistent calculation

     Convergence has been achieved 
 
     Number of q in the star =    4
     List of q in the star:
          1   0.500000000  -0.500000000   0.500000000
          2   0.500000000   0.500000000   0.500000000
          3  -0.500000000   0.500000000   0.500000000
          4   0.500000000   0.500000000  -0.500000000

     Diagonalizing the dynamical matrix

     q = (    0.500000000  -0.500000000   0.500000000 ) 

 **************************************************************************
     freq (    1) =       3.158313 [THz] =     105.349991 [cm-1]
     freq (    2) =       3.158313 [THz] =     105.349991 [cm-1]
     freq (    3) =      11.168977 [THz] =     372.556974 [cm-1]
     freq (    4) =      12.390707 [THz] =     413.309493 [cm-1]
     freq (    5) =      14.704263 [THz] =     490.481410 [cm-1]
     freq (    6) =      14.704263 [THz] =     490.481410 [cm-1]
 **************************************************************************

     Calculation of q =    0.0000000   0.3333333   0.0000000
 
     Parallelization info
     --------------------
     sticks:   dense  smooth     PW     G-vecs:    dense   smooth      PW
     Min         125     125     39                 2608     2608     464
     Max         126     126     40                 2611     2611     466
     Sum        1003    1003    313                20875    20875    3719
 
     Using Slab Decomposition
 

     Title: 
     default                                                                    


     bravais-lattice index     =            2
     lattice parameter (alat)  =      10.1899  a.u.
     unit-cell volume          =     264.5151 (a.u.)^3
     number of atoms/cell      =            2
     number of atomic types    =            1
     number of electrons       =         8.00
     number of Kohn-Sham states=            4
     kinetic-energy cutoff     =      70.0000  Ry
     charge density cutoff     =     280.0000  Ry
     Exchange-correlation= PW
                           (   1   4   0   0   0   0   0)

     celldm(1)=  10.189905  celldm(2)=   0.000000  celldm(3)=   0.000000
     celldm(4)=   0.000000  celldm(5)=   0.000000  celldm(6)=   0.000000

     crystal axes: (cart. coord. in units of alat)
               a(1) = (  -0.500000   0.000000   0.500000 )  
               a(2) = (   0.000000   0.500000   0.500000 )  
               a(3) = (  -0.500000   0.500000   0.000000 )  

     reciprocal axes: (cart. coord. in units 2 pi/alat)
               b(1) = ( -1.000000 -1.000000  1.000000 )  
               b(2) = (  1.000000  1.000000  1.000000 )  
               b(3) = ( -1.000000  1.000000 -1.000000 )  


     PseudoPot. # 1 for Si read from file:
     ./pseudos/Si.nc.UPF
     MD5 check sum: 9e2d726316af3d4752eea8ab0afbb951
     Pseudo is Norm-conserving + core correction, Zval =  4.0
     Generated using ONCVPSP code by D. R. Hamann
     Using radial grid of 1510 points,  6 beta functions with: 
                l(1) =   0
                l(2) =   0
                l(3) =   1
                l(4) =   1
                l(5) =   2
                l(6) =   2

     atomic species   valence    mass     pseudopotential
        Si             4.00    28.08550     Si( 1.00)

     48 Sym. Ops., with inversion, found



   Cartesian axes

     site n.     atom                  positions (alat units)
         1           Si  tau(   1) = (   0.0000000   0.0000000   0.0000000  )
         2           Si  tau(   2) = (  -0.2500000   0.2500000   0.2500000  )

     number of k points=   252

     Number of k-points >= 100: set verbosity='high' to print them.

     Dense  grid:    20875 G-vectors     FFT dimensions: (  40,  40,  40)

     Estimated max dynamical RAM per process >       2.62 MB

     Estimated total dynamical RAM >      62.94 MB

     The potential is recalculated from file :
     /fastscratch/tsievers/QE_TMP_DIR/_ph0/si_ph_bench_poolsize_8_n_procs_48_0.save/charge-density

     Starting wfcs are    8 atomic wfcs

     Band Structure Calculation
     Davidson diagonalization with overlap

     ethr =  1.25E-10,  avg # of iterations = 12.8

     total cpu time spent up to now is       20.6 secs

     End of band structure calculation

     Number of k-points >= 100: set verbosity='high' to print the bands.

     highest occupied level (ev):     6.1106

     Writing config to output data dir /fastscratch/tsievers/QE_TMP_DIR/_ph0/si_ph_bench_poolsize_8_n_procs_48_0.save/

     default                                                                    

     bravais-lattice index     =            2
     lattice parameter (alat)  =      10.1899  a.u.
     unit-cell volume          =     264.5151 (a.u.)^3
     number of atoms/cell      =            2
     number of atomic types    =            1
     kinetic-energy cut-off    =      70.0000  Ry
     charge density cut-off    =     280.0000  Ry
     convergence threshold     =      1.0E-15
     beta                      =       0.7000
     number of iterations used =            4
     Exchange-correlation= PW
                           (   1   4   0   0   0   0   0)


     celldm(1)=   10.18990  celldm(2)=    0.00000  celldm(3)=    0.00000
     celldm(4)=    0.00000  celldm(5)=    0.00000  celldm(6)=    0.00000

     crystal axes: (cart. coord. in units of alat)
               a(1) = ( -0.5000  0.0000  0.5000 )  
               a(2) = (  0.0000  0.5000  0.5000 )  
               a(3) = ( -0.5000  0.5000  0.0000 )  

     reciprocal axes: (cart. coord. in units 2 pi/alat)
               b(1) = ( -1.0000 -1.0000  1.0000 )  
               b(2) = (  1.0000  1.0000  1.0000 )  
               b(3) = ( -1.0000  1.0000 -1.0000 )  


     Atoms inside the unit cell: 

     Cartesian axes

     site n.  atom      mass           positions (alat units)
        1     Si  28.0855   tau(    1) = (    0.00000    0.00000    0.00000  )
        2     Si  28.0855   tau(    2) = (   -0.25000    0.25000    0.25000  )

     Computing dynamical matrix for 
                    q = (   0.0000000   0.3333333   0.0000000 )
 
      8 Sym.Ops. (no q -> -q+G )


     G cutoff =  736.4420  (   2611 G-vectors)     FFT grid: ( 40, 40, 40)
     number of k points=   252

     PseudoPot. # 1 for Si read from file:
     ./pseudos/Si.nc.UPF
     MD5 check sum: 9e2d726316af3d4752eea8ab0afbb951
     Pseudo is Norm-conserving + core correction, Zval =  4.0
     Generated using ONCVPSP code by D. R. Hamann
     Using radial grid of 1510 points,  6 beta functions with: 
                l(1) =   0
                l(2) =   0
                l(3) =   1
                l(4) =   1
                l(5) =   2
                l(6) =   2

     Mode symmetry, C_4v (4mm)  point group:


     Atomic displacements:
     There are    4 irreducible representations

     Representation     1      1 modes -  To be done

     Representation     2      1 modes -  To be done

     Representation     3      2 modes -  To be done

     Representation     4      2 modes -  To be done



     Alpha used in Ewald sum =   2.8000
     PHONON       :   2m22.28s CPU   2m54.63s WALL



     Representation #   1 mode #   1

     Self-consistent Calculation

      iter #   1 total cpu time :   175.1 secs   av.it.:   6.8
      thresh= 1.000E-02 alpha_mix =  0.700 |ddv_scf|^2 =  2.084E-03

      iter #   2 total cpu time :   175.8 secs   av.it.:   9.1
      thresh= 4.566E-03 alpha_mix =  0.700 |ddv_scf|^2 =  6.356E-02

      iter #   3 total cpu time :   176.4 secs   av.it.:   8.1
      thresh= 1.000E-02 alpha_mix =  0.700 |ddv_scf|^2 =  5.821E-08

      iter #   4 total cpu time :   177.1 secs   av.it.:   9.0
      thresh= 2.413E-05 alpha_mix =  0.700 |ddv_scf|^2 =  2.825E-09

      iter #   5 total cpu time :   177.8 secs   av.it.:   8.6
      thresh= 5.315E-06 alpha_mix =  0.700 |ddv_scf|^2 =  9.076E-10

      iter #   6 total cpu time :   178.5 secs   av.it.:   8.1
      thresh= 3.013E-06 alpha_mix =  0.700 |ddv_scf|^2 =  1.287E-12

      iter #   7 total cpu time :   179.1 secs   av.it.:   8.4
      thresh= 1.134E-07 alpha_mix =  0.700 |ddv_scf|^2 =  2.651E-14

      iter #   8 total cpu time :   179.6 secs   av.it.:   8.3
      thresh= 1.628E-08 alpha_mix =  0.700 |ddv_scf|^2 =  3.696E-16

     End of self-consistent calculation

     Convergence has been achieved 


     Representation #   2 mode #   2

     Self-consistent Calculation

      iter #   1 total cpu time :   180.2 secs   av.it.:   5.9
      thresh= 1.000E-02 alpha_mix =  0.700 |ddv_scf|^2 =  3.182E-07

      iter #   2 total cpu time :   181.8 secs   av.it.:  10.4
      thresh= 5.641E-05 alpha_mix =  0.700 |ddv_scf|^2 =  5.146E-08

      iter #   3 total cpu time :   182.5 secs   av.it.:  10.2
      thresh= 2.268E-05 alpha_mix =  0.700 |ddv_scf|^2 =  6.507E-10

      iter #   4 total cpu time :   183.3 secs   av.it.:  10.4
      thresh= 2.551E-06 alpha_mix =  0.700 |ddv_scf|^2 =  2.703E-11

      iter #   5 total cpu time :   184.0 secs   av.it.:  10.3
      thresh= 5.199E-07 alpha_mix =  0.700 |ddv_scf|^2 =  6.159E-14

      iter #   6 total cpu time :   184.7 secs   av.it.:  10.4
      thresh= 2.482E-08 alpha_mix =  0.700 |ddv_scf|^2 =  1.229E-15

      iter #   7 total cpu time :   185.3 secs   av.it.:  10.4
      thresh= 3.506E-09 alpha_mix =  0.700 |ddv_scf|^2 =  2.874E-17

     End of self-consistent calculation

     Convergence has been achieved 


     Representation #   3 modes #   3   4

     Self-consistent Calculation

      iter #   1 total cpu time :   186.5 secs   av.it.:   6.0
      thresh= 1.000E-02 alpha_mix =  0.700 |ddv_scf|^2 =  5.759E-08

      iter #   2 total cpu time :   188.0 secs   av.it.:  11.3
      thresh= 2.400E-05 alpha_mix =  0.700 |ddv_scf|^2 =  5.250E-09

      iter #   3 total cpu time :   189.6 secs   av.it.:  11.1
      thresh= 7.245E-06 alpha_mix =  0.700 |ddv_scf|^2 =  6.118E-11

      iter #   4 total cpu time :   191.1 secs   av.it.:  11.3
      thresh= 7.822E-07 alpha_mix =  0.700 |ddv_scf|^2 =  6.882E-13

      iter #   5 total cpu time :   192.7 secs   av.it.:  11.2
      thresh= 8.296E-08 alpha_mix =  0.700 |ddv_scf|^2 =  1.142E-14

      iter #   6 total cpu time :   194.3 secs   av.it.:  11.5
      thresh= 1.069E-08 alpha_mix =  0.700 |ddv_scf|^2 =  4.652E-17

     End of self-consistent calculation

     Convergence has been achieved 


     Representation #   4 modes #   5   6

     Self-consistent Calculation

      iter #   1 total cpu time :   195.4 secs   av.it.:   6.0
      thresh= 1.000E-02 alpha_mix =  0.700 |ddv_scf|^2 =  7.592E-08

      iter #   2 total cpu time :   196.9 secs   av.it.:  11.2
      thresh= 2.755E-05 alpha_mix =  0.700 |ddv_scf|^2 =  7.159E-09

      iter #   3 total cpu time :   198.4 secs   av.it.:  11.0
      thresh= 8.461E-06 alpha_mix =  0.700 |ddv_scf|^2 =  6.477E-11

      iter #   4 total cpu time :   199.9 secs   av.it.:  11.2
      thresh= 8.048E-07 alpha_mix =  0.700 |ddv_scf|^2 =  4.403E-13

      iter #   5 total cpu time :   201.4 secs   av.it.:  11.1
      thresh= 6.636E-08 alpha_mix =  0.700 |ddv_scf|^2 =  1.046E-14

      iter #   6 total cpu time :   202.7 secs   av.it.:  11.5
      thresh= 1.023E-08 alpha_mix =  0.700 |ddv_scf|^2 =  4.427E-17

     End of self-consistent calculation

     Convergence has been achieved 
 
     Number of q in the star =    6
     List of q in the star:
          1   0.000000000   0.333333333   0.000000000
          2   0.333333333   0.000000000   0.000000000
          3   0.000000000   0.000000000   0.333333333
          4   0.000000000  -0.333333333   0.000000000
          5  -0.333333333   0.000000000   0.000000000
          6   0.000000000   0.000000000  -0.333333333

     Diagonalizing the dynamical matrix

     q = (    0.000000000   0.333333333   0.000000000 ) 

 **************************************************************************
     freq (    1) =       2.948440 [THz] =      98.349379 [cm-1]
     freq (    2) =       2.948440 [THz] =      98.349379 [cm-1]
     freq (    3) =       4.953308 [THz] =     165.224561 [cm-1]
     freq (    4) =      14.670274 [THz] =     489.347674 [cm-1]
     freq (    5) =      14.670274 [THz] =     489.347674 [cm-1]
     freq (    6) =      15.143121 [THz] =     505.120156 [cm-1]
 **************************************************************************

     Mode symmetry, C_4v (4mm)  point group:

     freq (   1-   2) =         98.3  [cm-1]   --> E    G_5 D_5       
     freq (   3-   3) =        165.2  [cm-1]   --> A_1  G_1 D_1       
     freq (   4-   5) =        489.3  [cm-1]   --> E    G_5 D_5       
     freq (   6-   6) =        505.1  [cm-1]   --> B_2  G_4 D_2'      

     Calculation of q =   -0.1666667   0.5000000  -0.1666667
 
     Parallelization info
     --------------------
     sticks:   dense  smooth     PW     G-vecs:    dense   smooth      PW
     Min         125     125     39                 2608     2608     479
     Max         126     126     40                 2611     2611     484
     Sum        1003    1003    313                20875    20875    3839
 
     Using Slab Decomposition
 

     Title: 
     default                                                                    


     bravais-lattice index     =            2
     lattice parameter (alat)  =      10.1899  a.u.
     unit-cell volume          =     264.5151 (a.u.)^3
     number of atoms/cell      =            2
     number of atomic types    =            1
     number of electrons       =         8.00
     number of Kohn-Sham states=            4
     kinetic-energy cutoff     =      70.0000  Ry
     charge density cutoff     =     280.0000  Ry
     Exchange-correlation= PW
                           (   1   4   0   0   0   0   0)

     celldm(1)=  10.189905  celldm(2)=   0.000000  celldm(3)=   0.000000
     celldm(4)=   0.000000  celldm(5)=   0.000000  celldm(6)=   0.000000

     crystal axes: (cart. coord. in units of alat)
               a(1) = (  -0.500000   0.000000   0.500000 )  
               a(2) = (   0.000000   0.500000   0.500000 )  
               a(3) = (  -0.500000   0.500000   0.000000 )  

     reciprocal axes: (cart. coord. in units 2 pi/alat)
               b(1) = ( -1.000000 -1.000000  1.000000 )  
               b(2) = (  1.000000  1.000000  1.000000 )  
               b(3) = ( -1.000000  1.000000 -1.000000 )  


     PseudoPot. # 1 for Si read from file:
     ./pseudos/Si.nc.UPF
     MD5 check sum: 9e2d726316af3d4752eea8ab0afbb951
     Pseudo is Norm-conserving + core correction, Zval =  4.0
     Generated using ONCVPSP code by D. R. Hamann
     Using radial grid of 1510 points,  6 beta functions with: 
                l(1) =   0
                l(2) =   0
                l(3) =   1
                l(4) =   1
                l(5) =   2
                l(6) =   2

     atomic species   valence    mass     pseudopotential
        Si             4.00    28.08550     Si( 1.00)

     48 Sym. Ops., with inversion, found



   Cartesian axes

     site n.     atom                  positions (alat units)
         1           Si  tau(   1) = (   0.0000000   0.0000000   0.0000000  )
         2           Si  tau(   2) = (  -0.2500000   0.2500000   0.2500000  )

     number of k points=   936

     Number of k-points >= 100: set verbosity='high' to print them.

     Dense  grid:    20875 G-vectors     FFT dimensions: (  40,  40,  40)

     Estimated max dynamical RAM per process >       2.63 MB

     Estimated total dynamical RAM >      63.20 MB

     The potential is recalculated from file :
     /fastscratch/tsievers/QE_TMP_DIR/_ph0/si_ph_bench_poolsize_8_n_procs_48_0.save/charge-density

     Starting wfcs are    8 atomic wfcs

     Band Structure Calculation
     Davidson diagonalization with overlap

     ethr =  1.25E-10,  avg # of iterations = 12.8

     total cpu time spent up to now is       33.3 secs

     End of band structure calculation

[...]
      thresh= 1.578E-06 alpha_mix =  0.700 |ddv_scf|^2 =  1.953E-12

      iter #   5 total cpu time :   752.1 secs   av.it.:  10.4
      thresh= 1.397E-07 alpha_mix =  0.700 |ddv_scf|^2 =  3.894E-14

      iter #   6 total cpu time :   754.4 secs   av.it.:  10.6
      thresh= 1.973E-08 alpha_mix =  0.700 |ddv_scf|^2 =  2.547E-16

     End of self-consistent calculation

     Convergence has been achieved 


     Representation #   6 mode #   6

     Self-consistent Calculation

      iter #   1 total cpu time :   756.8 secs   av.it.:   6.0
      thresh= 1.000E-02 alpha_mix =  0.700 |ddv_scf|^2 =  2.719E-07

      iter #   2 total cpu time :   762.2 secs   av.it.:  10.5
      thresh= 5.214E-05 alpha_mix =  0.700 |ddv_scf|^2 =  2.627E-08

      iter #   3 total cpu time :   765.0 secs   av.it.:  10.2
      thresh= 1.621E-05 alpha_mix =  0.700 |ddv_scf|^2 =  2.490E-10

      iter #   4 total cpu time :   767.8 secs   av.it.:  10.4
      thresh= 1.578E-06 alpha_mix =  0.700 |ddv_scf|^2 =  1.953E-12

      iter #   5 total cpu time :   771.6 secs   av.it.:  10.4
      thresh= 1.397E-07 alpha_mix =  0.700 |ddv_scf|^2 =  3.895E-14

      iter #   6 total cpu time :   773.9 secs   av.it.:  10.6
      thresh= 1.974E-08 alpha_mix =  0.700 |ddv_scf|^2 =  2.547E-16

     End of self-consistent calculation

     Convergence has been achieved 
 
     Number of q in the star =   24
     List of q in the star:
          1   0.500000000  -0.166666667   0.500000000
          2  -0.500000000  -0.166666667  -0.500000000
          3   0.500000000  -0.166666667  -0.500000000
          4  -0.500000000  -0.166666667   0.500000000
          5  -0.166666667   0.500000000  -0.500000000
          6  -0.500000000   0.500000000  -0.166666667
          7   0.500000000   0.166666667   0.500000000
          8  -0.500000000   0.166666667   0.500000000
          9   0.500000000   0.166666667  -0.500000000
         10  -0.166666667   0.500000000   0.500000000
         11   0.166666667   0.500000000  -0.500000000
         12  -0.166666667  -0.500000000  -0.500000000
         13   0.500000000  -0.500000000   0.166666667
         14   0.500000000   0.500000000  -0.166666667
         15  -0.500000000  -0.500000000  -0.166666667
         16  -0.500000000   0.500000000   0.166666667
         17   0.166666667  -0.500000000   0.500000000
         18   0.166666667   0.500000000   0.500000000
         19  -0.500000000   0.166666667  -0.500000000
         20  -0.166666667  -0.500000000   0.500000000
         21  -0.500000000  -0.500000000   0.166666667
         22   0.500000000   0.500000000   0.166666667
         23   0.166666667  -0.500000000  -0.500000000
         24   0.500000000  -0.500000000  -0.166666667

     Diagonalizing the dynamical matrix

     q = (    0.500000000  -0.166666667   0.500000000 ) 

 **************************************************************************
     freq (    1) =       3.831667 [THz] =     127.810660 [cm-1]
     freq (    2) =       5.057728 [THz] =     168.707646 [cm-1]
     freq (    3) =       9.109367 [THz] =     303.855787 [cm-1]
     freq (    4) =      12.612423 [THz] =     420.705149 [cm-1]
     freq (    5) =      14.335921 [THz] =     478.194849 [cm-1]
     freq (    6) =      14.664732 [THz] =     489.162819 [cm-1]
 **************************************************************************

     Mode symmetry, C_s (m)     point group:

     freq (   1-   1) =        127.8  [cm-1]   --> A''                
     freq (   2-   2) =        168.7  [cm-1]   --> A'                 
     freq (   3-   3) =        303.9  [cm-1]   --> A'                 
     freq (   4-   4) =        420.7  [cm-1]   --> A'                 
     freq (   5-   5) =        478.2  [cm-1]   --> A''                
     freq (   6-   6) =        489.2  [cm-1]   --> A'                 

     Calculation of q =    0.3333333   0.0000000   0.3333333
 
     Parallelization info
     --------------------
     sticks:   dense  smooth     PW     G-vecs:    dense   smooth      PW
     Min         125     125     39                 2608     2608     479
     Max         126     126     40                 2611     2611     484
     Sum        1003    1003    313                20875    20875    3839
 
     Using Slab Decomposition
 

     Title: 
     default                                                                    


     bravais-lattice index     =            2
     lattice parameter (alat)  =      10.1899  a.u.
     unit-cell volume          =     264.5151 (a.u.)^3
     number of atoms/cell      =            2
     number of atomic types    =            1
     number of electrons       =         8.00
     number of Kohn-Sham states=            4
     kinetic-energy cutoff     =      70.0000  Ry
     charge density cutoff     =     280.0000  Ry
     Exchange-correlation= PW
                           (   1   4   0   0   0   0   0)

     celldm(1)=  10.189905  celldm(2)=   0.000000  celldm(3)=   0.000000
     celldm(4)=   0.000000  celldm(5)=   0.000000  celldm(6)=   0.000000

     crystal axes: (cart. coord. in units of alat)
               a(1) = (  -0.500000   0.000000   0.500000 )  
               a(2) = (   0.000000   0.500000   0.500000 )  
               a(3) = (  -0.500000   0.500000   0.000000 )  

     reciprocal axes: (cart. coord. in units 2 pi/alat)
               b(1) = ( -1.000000 -1.000000  1.000000 )  
               b(2) = (  1.000000  1.000000  1.000000 )  
               b(3) = ( -1.000000  1.000000 -1.000000 )  


     PseudoPot. # 1 for Si read from file:
     ./pseudos/Si.nc.UPF
     MD5 check sum: 9e2d726316af3d4752eea8ab0afbb951
     Pseudo is Norm-conserving + core correction, Zval =  4.0
     Generated using ONCVPSP code by D. R. Hamann
     Using radial grid of 1510 points,  6 beta functions with: 
                l(1) =   0
                l(2) =   0
                l(3) =   1
                l(4) =   1
                l(5) =   2
                l(6) =   2

     atomic species   valence    mass     pseudopotential
        Si             4.00    28.08550     Si( 1.00)

     48 Sym. Ops., with inversion, found



   Cartesian axes

     site n.     atom                  positions (alat units)
         1           Si  tau(   1) = (   0.0000000   0.0000000   0.0000000  )
         2           Si  tau(   2) = (  -0.2500000   0.2500000   0.2500000  )

     number of k points=   468

     Number of k-points >= 100: set verbosity='high' to print them.

     Dense  grid:    20875 G-vectors     FFT dimensions: (  40,  40,  40)

     Estimated max dynamical RAM per process >       2.63 MB

     Estimated total dynamical RAM >      63.11 MB

     The potential is recalculated from file :
     /fastscratch/tsievers/QE_TMP_DIR/_ph0/si_ph_bench_poolsize_8_n_procs_48_0.save/charge-density

     Starting wfcs are    8 atomic wfcs

     Band Structure Calculation
     Davidson diagonalization with overlap

     ethr =  1.25E-10,  avg # of iterations = 12.8

     total cpu time spent up to now is       64.3 secs

     End of band structure calculation

     Number of k-points >= 100: set verbosity='high' to print the bands.

     highest occupied level (ev):     6.1106

     Writing config to output data dir /fastscratch/tsievers/QE_TMP_DIR/_ph0/si_ph_bench_poolsize_8_n_procs_48_0.save/

     default                                                                    

     bravais-lattice index     =            2
     lattice parameter (alat)  =      10.1899  a.u.
     unit-cell volume          =     264.5151 (a.u.)^3
     number of atoms/cell      =            2
     number of atomic types    =            1
     kinetic-energy cut-off    =      70.0000  Ry
     charge density cut-off    =     280.0000  Ry
     convergence threshold     =      1.0E-15
     beta                      =       0.7000
     number of iterations used =            4
     Exchange-correlation= PW
                           (   1   4   0   0   0   0   0)


     celldm(1)=   10.18990  celldm(2)=    0.00000  celldm(3)=    0.00000
     celldm(4)=    0.00000  celldm(5)=    0.00000  celldm(6)=    0.00000

     crystal axes: (cart. coord. in units of alat)
               a(1) = ( -0.5000  0.0000  0.5000 )  
               a(2) = (  0.0000  0.5000  0.5000 )  
               a(3) = ( -0.5000  0.5000  0.0000 )  

     reciprocal axes: (cart. coord. in units 2 pi/alat)
               b(1) = ( -1.0000 -1.0000  1.0000 )  
               b(2) = (  1.0000  1.0000  1.0000 )  
               b(3) = ( -1.0000  1.0000 -1.0000 )  


     Atoms inside the unit cell: 

     Cartesian axes

     site n.  atom      mass           positions (alat units)
        1     Si  28.0855   tau(    1) = (    0.00000    0.00000    0.00000  )
        2     Si  28.0855   tau(    2) = (   -0.25000    0.25000    0.25000  )

     Computing dynamical matrix for 
                    q = (   0.3333333   0.0000000   0.3333333 )
 
      4 Sym.Ops. (no q -> -q+G )


     G cutoff =  736.4420  (   2611 G-vectors)     FFT grid: ( 40, 40, 40)
     number of k points=   468

     PseudoPot. # 1 for Si read from file:
     ./pseudos/Si.nc.UPF
     MD5 check sum: 9e2d726316af3d4752eea8ab0afbb951
     Pseudo is Norm-conserving + core correction, Zval =  4.0
     Generated using ONCVPSP code by D. R. Hamann
     Using radial grid of 1510 points,  6 beta functions with: 
                l(1) =   0
                l(2) =   0
                l(3) =   1
                l(4) =   1
                l(5) =   2
                l(6) =   2

     Mode symmetry, C_2v (mm2)  point group:


     Atomic displacements:
     There are    6 irreducible representations

     Representation     1      1 modes -  To be done

     Representation     2      1 modes -  To be done

     Representation     3      1 modes -  To be done

     Representation     4      1 modes -  To be done

     Representation     5      1 modes -  Not done in this run

     Representation     6      1 modes -  Not done in this run

     Compute atoms:     1,    2,



     Alpha used in Ewald sum =   2.8000
     PHONON       :  10m21.88s CPU  13m 3.66s WALL



     Representation #   1 mode #   1

     Self-consistent Calculation

      iter #   1 total cpu time :   784.5 secs   av.it.:   6.3
      thresh= 1.000E-02 alpha_mix =  0.700 |ddv_scf|^2 =  5.670E-05

      iter #   2 total cpu time :   786.2 secs   av.it.:   9.7
      thresh= 7.530E-04 alpha_mix =  0.700 |ddv_scf|^2 =  8.782E-04

      iter #   3 total cpu time :   787.2 secs   av.it.:   7.9
      thresh= 2.963E-03 alpha_mix =  0.700 |ddv_scf|^2 =  6.568E-08

      iter #   4 total cpu time :   788.4 secs   av.it.:  10.0
      thresh= 2.563E-05 alpha_mix =  0.700 |ddv_scf|^2 =  1.981E-09

      iter #   5 total cpu time :   789.9 secs   av.it.:   9.9
      thresh= 4.450E-06 alpha_mix =  0.700 |ddv_scf|^2 =  7.516E-11

      iter #   6 total cpu time :   791.5 secs   av.it.:   9.6
      thresh= 8.669E-07 alpha_mix =  0.700 |ddv_scf|^2 =  9.473E-11

      iter #   7 total cpu time :   793.5 secs   av.it.:   8.0
      thresh= 9.733E-07 alpha_mix =  0.700 |ddv_scf|^2 =  1.807E-13

      iter #   8 total cpu time :   795.3 secs   av.it.:   9.6
      thresh= 4.251E-08 alpha_mix =  0.700 |ddv_scf|^2 =  9.336E-15

      iter #   9 total cpu time :   797.4 secs   av.it.:   9.5
      thresh= 9.662E-09 alpha_mix =  0.700 |ddv_scf|^2 =  1.383E-15

      iter #  10 total cpu time :   798.5 secs   av.it.:   9.3
      thresh= 3.719E-09 alpha_mix =  0.700 |ddv_scf|^2 =  1.454E-16

     End of self-consistent calculation

     Convergence has been achieved 


     Representation #   2 mode #   2

     Self-consistent Calculation

      iter #   1 total cpu time :   800.8 secs   av.it.:   6.9
      thresh= 1.000E-02 alpha_mix =  0.700 |ddv_scf|^2 =  4.939E-04

      iter #   2 total cpu time :   801.9 secs   av.it.:   9.6
      thresh= 2.222E-03 alpha_mix =  0.700 |ddv_scf|^2 =  7.892E-03

      iter #   3 total cpu time :   802.9 secs   av.it.:   7.9
      thresh= 8.884E-03 alpha_mix =  0.700 |ddv_scf|^2 =  1.370E-07

      iter #   4 total cpu time :   804.3 secs   av.it.:   9.8
      thresh= 3.701E-05 alpha_mix =  0.700 |ddv_scf|^2 =  1.073E-08

      iter #   5 total cpu time :   805.7 secs   av.it.:   9.7
      thresh= 1.036E-05 alpha_mix =  0.700 |ddv_scf|^2 =  9.055E-11

      iter #   6 total cpu time :   807.2 secs   av.it.:   9.5
      thresh= 9.516E-07 alpha_mix =  0.700 |ddv_scf|^2 =  1.480E-12

      iter #   7 total cpu time :   808.4 secs   av.it.:   9.1
      thresh= 1.217E-07 alpha_mix =  0.700 |ddv_scf|^2 =  2.725E-12

      iter #   8 total cpu time :   810.7 secs   av.it.:   8.2
      thresh= 1.651E-07 alpha_mix =  0.700 |ddv_scf|^2 =  3.885E-14

      iter #   9 total cpu time :   811.8 secs   av.it.:   8.7
      thresh= 1.971E-08 alpha_mix =  0.700 |ddv_scf|^2 =  2.050E-16

     End of self-consistent calculation

     Convergence has been achieved 


     Representation #   3 mode #   3

     Self-consistent Calculation

      iter #   1 total cpu time :   814.1 secs   av.it.:   5.9
      thresh= 1.000E-02 alpha_mix =  0.700 |ddv_scf|^2 =  2.786E-07

      iter #   2 total cpu time :   816.6 secs   av.it.:  10.3
      thresh= 5.278E-05 alpha_mix =  0.700 |ddv_scf|^2 =  1.505E-08

      iter #   3 total cpu time :   818.6 secs   av.it.:  10.2
      thresh= 1.227E-05 alpha_mix =  0.700 |ddv_scf|^2 =  1.966E-10

      iter #   4 total cpu time :   820.5 secs   av.it.:  10.1
      thresh= 1.402E-06 alpha_mix =  0.700 |ddv_scf|^2 =  4.658E-13

      iter #   5 total cpu time :   822.0 secs   av.it.:  10.3
      thresh= 6.825E-08 alpha_mix =  0.700 |ddv_scf|^2 =  7.059E-15

      iter #   6 total cpu time :   823.4 secs   av.it.:  10.4
      thresh= 8.402E-09 alpha_mix =  0.700 |ddv_scf|^2 =  5.874E-17

     End of self-consistent calculation

     Convergence has been achieved 


     Representation #   4 mode #   4

     Self-consistent Calculation

      iter #   1 total cpu time :   825.3 secs   av.it.:   5.7
      thresh= 1.000E-02 alpha_mix =  0.700 |ddv_scf|^2 =  6.220E-08

      iter #   2 total cpu time :   826.8 secs   av.it.:  10.3
      thresh= 2.494E-05 alpha_mix =  0.700 |ddv_scf|^2 =  1.688E-09

      iter #   3 total cpu time :   828.2 secs   av.it.:  10.1
      thresh= 4.108E-06 alpha_mix =  0.700 |ddv_scf|^2 =  1.042E-10

      iter #   4 total cpu time :   830.2 secs   av.it.:  10.2
      thresh= 1.021E-06 alpha_mix =  0.700 |ddv_scf|^2 =  3.781E-13

      iter #   5 total cpu time :   832.2 secs   av.it.:  10.3
      thresh= 6.149E-08 alpha_mix =  0.700 |ddv_scf|^2 =  8.515E-16

     End of self-consistent calculation

     Convergence has been achieved 

     Not diagonalizing because representation    5 is not done
 
     init_run     :      0.20s CPU      0.50s WALL (       8 calls)
     electrons    :     54.37s CPU     56.26s WALL (       8 calls)

     Called by init_run:
     wfcinit      :      0.00s CPU      0.26s WALL (       8 calls)
     potinit      :      0.01s CPU      0.02s WALL (       8 calls)
     hinit0       :      0.08s CPU      0.08s WALL (       8 calls)

     Called by electrons:
     c_bands      :     54.36s CPU     56.25s WALL (       8 calls)
     v_of_rho     :      0.01s CPU      0.01s WALL (       9 calls)

     Called by c_bands:
     init_us_2    :      4.87s CPU      5.10s WALL (   45015 calls)
     init_us_2:cp :      4.76s CPU      5.00s WALL (   45015 calls)
     cegterg      :     32.99s CPU     33.82s WALL (    1482 calls)

     Called by *egterg:
     cdiaghg      :     12.83s CPU     13.14s WALL (   21295 calls)
     h_psi        :    320.04s CPU    333.97s WALL (  450905 calls)
     g_psi        :      0.18s CPU      0.18s WALL (   19813 calls)

     Called by h_psi:
     h_psi:calbec :     24.28s CPU     25.34s WALL (  450905 calls)
     vloc_psi     :    273.67s CPU    285.58s WALL (  450905 calls)
     add_vuspsi   :     17.87s CPU     18.88s WALL (  450905 calls)

     General routines
     calbec       :     43.21s CPU     45.38s WALL (  903973 calls)
     fft          :      0.33s CPU      0.38s WALL (    2147 calls)
     ffts         :      2.35s CPU      2.39s WALL (    4650 calls)
     fftw         :    320.12s CPU    333.26s WALL ( 3774976 calls)
     davcio       :      2.38s CPU     23.76s WALL (  193491 calls)
 
     Parallel routines
 
     PHONON       :  10m57.63s CPU  13m53.81s WALL

     INITIALIZATION: 
     phq_setup    :      0.03s CPU      0.06s WALL (       9 calls)
     phq_init     :      1.80s CPU      2.47s WALL (       9 calls)
 
     phq_init     :      1.80s CPU      2.47s WALL (       9 calls)
     set_drhoc    :      0.64s CPU      0.65s WALL (      27 calls)
     init_vloc    :      0.02s CPU      0.02s WALL (       9 calls)
     init_us_1    :      0.02s CPU      0.03s WALL (       9 calls)
     init_us_2    :      4.87s CPU      5.10s WALL (   45015 calls)
 
     DYNAMICAL MATRIX:
     dynmat0      :      1.10s CPU      1.73s WALL (       9 calls)
     phqscf       :    596.01s CPU    744.27s WALL (       9 calls)
     dynmatrix    :      0.04s CPU      1.45s WALL (       9 calls)
 
     phqscf       :    596.01s CPU    744.27s WALL (       9 calls)
     solve_linter :    594.19s CPU    729.39s WALL (      40 calls)
     drhodv       :      1.77s CPU      1.84s WALL (      40 calls)
 
     dynmat0      :      1.10s CPU      1.73s WALL (       9 calls)
     dynmat_us    :      0.64s CPU      0.66s WALL (       9 calls)
     d2ionq       :      0.01s CPU      0.01s WALL (       9 calls)
     dynmatcc     :      0.44s CPU      0.44s WALL (       9 calls)
 
     dynmat_us    :      0.64s CPU      0.66s WALL (       9 calls)
 
     phqscf       :    596.01s CPU    744.27s WALL (       9 calls)
     solve_linter :    594.19s CPU    729.39s WALL (      40 calls)
 
     solve_linter :    594.19s CPU    729.39s WALL (      40 calls)
     dvqpsi_us    :      6.42s CPU      6.67s WALL (    4410 calls)
     sth_kernel   :    492.53s CPU    530.80s WALL (     329 calls)
     apply_dpot_b :     24.51s CPU     25.78s WALL (   32360 calls)
     ortho        :      1.29s CPU      1.37s WALL (   36770 calls)
     cgsolve      :    348.99s CPU    364.59s WALL (   36770 calls)
     incdrhoscf   :     53.13s CPU     54.45s WALL (   36740 calls)
     dv_of_drho   :      0.19s CPU      0.20s WALL (     406 calls)
     mix_pot      :      4.67s CPU     73.74s WALL (     329 calls)
     psymdvscf    :      5.45s CPU      5.46s WALL (     324 calls)
 
     dvqpsi_us    :      6.42s CPU      6.67s WALL (    4410 calls)
     dvqpsi_us_on :      0.84s CPU      0.89s WALL (    4410 calls)
 
     cgsolve      :    348.99s CPU    364.59s WALL (   36770 calls)
     ch_psi       :    340.26s CPU    355.31s WALL (  428128 calls)
 
     ch_psi       :    340.26s CPU    355.31s WALL (  428128 calls)
     h_psi        :    320.04s CPU    333.97s WALL (  450905 calls)
     last         :     32.71s CPU     34.19s WALL (  428128 calls)
 
     h_psi        :    320.04s CPU    333.97s WALL (  450905 calls)
     add_vuspsi   :     17.87s CPU     18.88s WALL (  450905 calls)
 
     incdrhoscf   :     53.13s CPU     54.45s WALL (   36740 calls)
 
 
      General routines
     calbec       :     43.21s CPU     45.38s WALL (  903973 calls)
     fft          :      0.33s CPU      0.38s WALL (    2147 calls)
     ffts         :      2.35s CPU      2.39s WALL (    4650 calls)
     fftw         :    320.12s CPU    333.26s WALL ( 3774976 calls)
     davcio       :      2.38s CPU     23.76s WALL (  193491 calls)
     write_rec    :      1.13s CPU     41.59s WALL (     369 calls)
 
 
     PHONON       :  10m57.63s CPU  13m53.81s WALL

 
   This run was terminated on:   1:29:13  19May2022            

=------------------------------------------------------------------------------=
   JOB DONE.
=------------------------------------------------------------------------------=
real 838.09
user 13590.72
sys 398.92
