Module for intel-oneAPI 2021.4 loaded.
 
:: initializing oneAPI environment ...
   2697091: BASH_VERSION = 4.4.20(1)-release
:: advisor -- latest
:: ccl -- latest
:: clck -- latest
:: compiler -- latest
:: dal -- latest
:: debugger -- latest
:: dev-utilities -- latest
:: dnnl -- latest
:: dpcpp-ct -- latest
:: dpl -- latest
:: inspector -- latest
:: intelpython -- latest
:: ipp -- latest
:: ippcp -- latest
:: ipp -- latest
:: itac -- latest
:: LPOT -- latest
:: mkl -- latest
:: modelzoo -- latest
:: mpi -- latest
:: pytorch -- latest
:: tbb -- latest
:: tensorflow -- latest
:: vpl -- latest
:: vtune -- latest
:: oneAPI environment initialized ::
 

     Program PWSCF v.7.0 starts on 13May2022 at 18:47:27 

     This program is part of the open-source Quantum ESPRESSO suite
     for quantum simulation of materials; please cite
         "P. Giannozzi et al., J. Phys.:Condens. Matter 21 395502 (2009);
         "P. Giannozzi et al., J. Phys.:Condens. Matter 29 465901 (2017);
         "P. Giannozzi et al., J. Chem. Phys. 152 154105 (2020);
          URL http://www.quantum-espresso.org", 
     in publications or presentations arising from this work. More details at
     http://www.quantum-espresso.org/quote

     Parallel version (MPI), running on    24 processors

     MPI processes distributed on     2 nodes
     R & G space division:  proc/nbgrp/npool/nimage =      24
     57843 MiB available memory on the printing compute node when the environment starts
 
     Reading input from in_files/si_ph_bench_poolsize_8_n_procs_24_0.scf

     Current dimensions of program PWSCF are:
     Max number of different atomic species (ntypx) = 10
     Max number of k-points (npk) =  40000
     Max angular momentum in pseudopotentials (lmaxx) =  4

     Subspace diagonalization in iterative solution of the eigenvalue problem:
     one sub-group per band group will be used
     scalapack distributed-memory algorithm (size of sub-group:  3*  3 procs)

 
     Parallelization info
     --------------------
     sticks:   dense  smooth     PW     G-vecs:    dense   smooth      PW
     Min          41      41     12                  868      868     143
     Max          42      42     13                  871      871     146
     Sum        1003    1003    301                20875    20875    3479
 
     Using Slab Decomposition
 


     bravais-lattice index     =            2
     lattice parameter (alat)  =      10.1899  a.u.
     unit-cell volume          =     264.5151 (a.u.)^3
     number of atoms/cell      =            2
     number of atomic types    =            1
     number of electrons       =         8.00
     number of Kohn-Sham states=            4
     kinetic-energy cutoff     =      70.0000  Ry
     charge density cutoff     =     280.0000  Ry
     scf convergence threshold =      1.0E-10
     mixing beta               =       0.7000
     number of iterations used =            8  plain     mixing
     Exchange-correlation= SLA  PW   NOGX NOGC
                           (   1   4   0   0   0   0   0)

     celldm(1)=  10.189905  celldm(2)=   0.000000  celldm(3)=   0.000000
     celldm(4)=   0.000000  celldm(5)=   0.000000  celldm(6)=   0.000000

     crystal axes: (cart. coord. in units of alat)
               a(1) = (  -0.500000   0.000000   0.500000 )  
               a(2) = (   0.000000   0.500000   0.500000 )  
               a(3) = (  -0.500000   0.500000   0.000000 )  

     reciprocal axes: (cart. coord. in units 2 pi/alat)
               b(1) = ( -1.000000 -1.000000  1.000000 )  
               b(2) = (  1.000000  1.000000  1.000000 )  
               b(3) = ( -1.000000  1.000000 -1.000000 )  


     PseudoPot. # 1 for Si read from file:
     ./pseudos/Si.nc.UPF
     MD5 check sum: 9e2d726316af3d4752eea8ab0afbb951
     Pseudo is Norm-conserving + core correction, Zval =  4.0
     Generated using ONCVPSP code by D. R. Hamann
     Using radial grid of 1510 points,  6 beta functions with: 
                l(1) =   0
                l(2) =   0
                l(3) =   1
                l(4) =   1
                l(5) =   2
                l(6) =   2

     atomic species   valence    mass     pseudopotential
        Si             4.00    28.08550     Si( 1.00)

     48 Sym. Ops., with inversion, found (24 have fractional translation)



   Cartesian axes

     site n.     atom                  positions (alat units)
         1           Si  tau(   1) = (   0.0000000   0.0000000   0.0000000  )
         2           Si  tau(   2) = (  -0.2500000   0.2500000   0.2500000  )

     number of k points=    28
                       cart. coord. in units 2pi/alat
        k(    1) = (  -0.0833333   0.0833333   0.0833333), wk =   0.0185185
        k(    2) = (  -0.2500000   0.2500000  -0.0833333), wk =   0.0555556
        k(    3) = (  -0.4166667   0.4166667  -0.2500000), wk =   0.0555556
        k(    4) = (   0.4166667  -0.4166667   0.5833333), wk =   0.0555556
        k(    5) = (   0.2500000  -0.2500000   0.4166667), wk =   0.0555556
        k(    6) = (   0.0833333  -0.0833333   0.2500000), wk =   0.0555556
        k(    7) = (  -0.0833333   0.4166667   0.0833333), wk =   0.0555556
        k(    8) = (  -0.2500000   0.5833333  -0.0833333), wk =   0.1111111
        k(    9) = (   0.5833333  -0.2500000   0.7500000), wk =   0.1111111
        k(   10) = (   0.4166667  -0.0833333   0.5833333), wk =   0.1111111
        k(   11) = (   0.2500000   0.0833333   0.4166667), wk =   0.1111111
        k(   12) = (  -0.0833333   0.7500000   0.0833333), wk =   0.0555556
        k(   13) = (   0.7500000  -0.0833333   0.9166667), wk =   0.1111111
        k(   14) = (   0.5833333   0.0833333   0.7500000), wk =   0.1111111
        k(   15) = (   0.4166667   0.2500000   0.5833333), wk =   0.1111111
        k(   16) = (  -0.0833333  -0.9166667   0.0833333), wk =   0.0555556
        k(   17) = (  -0.2500000  -0.7500000  -0.0833333), wk =   0.1111111
        k(   18) = (  -0.0833333  -0.5833333   0.0833333), wk =   0.0555556
        k(   19) = (  -0.2500000   0.2500000   0.2500000), wk =   0.0185185
        k(   20) = (  -0.4166667   0.4166667   0.0833333), wk =   0.0555556
        k(   21) = (   0.4166667  -0.4166667   0.9166667), wk =   0.0555556
        k(   22) = (   0.2500000  -0.2500000   0.7500000), wk =   0.0555556
        k(   23) = (  -0.2500000   0.5833333   0.2500000), wk =   0.0555556
        k(   24) = (   0.5833333  -0.2500000   1.0833333), wk =   0.1111111
        k(   25) = (   0.4166667  -0.0833333   0.9166667), wk =   0.1111111
        k(   26) = (  -0.2500000  -1.0833333   0.2500000), wk =   0.0555556
        k(   27) = (  -0.4166667   0.4166667   0.4166667), wk =   0.0185185
        k(   28) = (   0.4166667  -0.4166667   1.2500000), wk =   0.0555556

     Dense  grid:    20875 G-vectors     FFT dimensions: (  40,  40,  40)

     Estimated max dynamical RAM per process >       2.21 MB

     Estimated total dynamical RAM >      52.97 MB

     Initial potential from superposition of free atoms

     starting charge       7.9989, renormalised to       8.0000
     Starting wfcs are    8 randomized atomic wfcs

     total cpu time spent up to now is        3.2 secs

     Self-consistent Calculation

     iteration #  1     ecut=    70.00 Ry     beta= 0.70
     Davidson diagonalization with overlap
     ethr =  1.00E-02,  avg # of iterations =  2.0

     Threshold (ethr) on eigenvalues was too large:
     Diagonalizing with lowered threshold

     Davidson diagonalization with overlap
     ethr =  6.13E-04,  avg # of iterations =  2.0

     total cpu time spent up to now is        3.6 secs

     total energy              =     -17.04763592 Ry
     estimated scf accuracy    <       0.05800259 Ry

     iteration #  2     ecut=    70.00 Ry     beta= 0.70
     Davidson diagonalization with overlap
     ethr =  7.25E-04,  avg # of iterations =  1.0

     total cpu time spent up to now is        3.7 secs

     total energy              =     -17.04996468 Ry
     estimated scf accuracy    <       0.00249031 Ry

     iteration #  3     ecut=    70.00 Ry     beta= 0.70
     Davidson diagonalization with overlap
     ethr =  3.11E-05,  avg # of iterations =  3.0

     total cpu time spent up to now is        3.9 secs

     total energy              =     -17.05083028 Ry
     estimated scf accuracy    <       0.00009484 Ry

     iteration #  4     ecut=    70.00 Ry     beta= 0.70
     Davidson diagonalization with overlap
     ethr =  1.19E-06,  avg # of iterations =  4.3

     total cpu time spent up to now is        4.1 secs

     total energy              =     -17.05089798 Ry
     estimated scf accuracy    <       0.00000294 Ry

     iteration #  5     ecut=    70.00 Ry     beta= 0.70
     Davidson diagonalization with overlap
     ethr =  3.67E-08,  avg # of iterations =  4.6

     total cpu time spent up to now is        4.4 secs

     total energy              =     -17.05090100 Ry
     estimated scf accuracy    <       0.00000015 Ry

     iteration #  6     ecut=    70.00 Ry     beta= 0.70
     Davidson diagonalization with overlap
     ethr =  1.85E-09,  avg # of iterations =  3.2

     total cpu time spent up to now is        4.6 secs

     total energy              =     -17.05090106 Ry
     estimated scf accuracy    <       0.00000002 Ry

     iteration #  7     ecut=    70.00 Ry     beta= 0.70
     Davidson diagonalization with overlap
     ethr =  2.15E-10,  avg # of iterations =  3.0

     total cpu time spent up to now is        4.8 secs

     End of self-consistent calculation

          k =-0.0833 0.0833 0.0833 (  2667 PWs)   bands (ev):

    -5.7561   5.3866   6.1106   6.1106

          k =-0.2500 0.2500-0.0833 (  2621 PWs)   bands (ev):

    -5.2692   3.2787   4.8359   5.9020

          k =-0.4167 0.4167-0.2500 (  2618 PWs)   bands (ev):

    -4.1491   0.4558   4.3704   5.2525

          k = 0.4167-0.4167 0.5833 (  2604 PWs)   bands (ev):

    -3.4239  -0.7235   4.4440   4.8612

          k = 0.2500-0.2500 0.4167 (  2618 PWs)   bands (ev):

    -4.5725   1.3222   4.9163   4.9543

          k = 0.0833-0.0833 0.2500 (  2643 PWs)   bands (ev):

    -5.5104   4.3092   5.4447   5.6431

          k =-0.0833 0.4167 0.0833 (  2627 PWs)   bands (ev):

    -5.0231   3.1094   4.6844   4.6977

          k =-0.2500 0.5833-0.0833 (  2613 PWs)   bands (ev):

    -4.0918   1.2428   3.3199   4.3008

          k = 0.5833-0.2500 0.7500 (  2616 PWs)   bands (ev):

    -2.9383  -0.5645   2.7090   4.0651

          k = 0.4167-0.0833 0.5833 (  2617 PWs)   bands (ev):

    -3.6856   0.5301   2.6549   4.5685

          k = 0.2500 0.0833 0.4167 (  2624 PWs)   bands (ev):

    -4.7922   2.2460   4.0374   5.2604

          k =-0.0833 0.7500 0.0833 (  2617 PWs)   bands (ev):

    -3.3664   0.4197   3.2861   3.6484

          k = 0.7500-0.0833 0.9167 (  2608 PWs)   bands (ev):

    -2.1400  -0.9430   2.4039   3.2177

          k = 0.5833 0.0833 0.7500 (  2608 PWs)   bands (ev):

    -2.5099  -0.6178   1.9049   3.7798

          k = 0.4167 0.2500 0.5833 (  2622 PWs)   bands (ev):

    -3.5664  -0.1967   3.6417   4.6731

          k =-0.0833-0.9167 0.0833 (  2604 PWs)   bands (ev):

    -2.2385  -0.9535   3.0091   3.4290

          k =-0.2500-0.7500-0.0833 (  2615 PWs)   bands (ev):

    -3.1914   0.1893   2.7413   3.5675

          k =-0.0833-0.5833 0.0833 (  2620 PWs)   bands (ev):

    -4.3033   1.8031   3.8480   4.0788

          k =-0.2500 0.2500 0.2500 (  2632 PWs)   bands (ev):

    -5.0343   2.2731   5.4857   5.4857

          k =-0.4167 0.4167 0.0833 (  2620 PWs)   bands (ev):

    -4.3392   1.3430   3.2813   5.3165

          k = 0.4167-0.4167 0.9167 (  2613 PWs)   bands (ev):

    -3.1274  -0.1140   2.1362   4.5076

          k = 0.2500-0.2500 0.7500 (  2618 PWs)   bands (ev):

    -3.0761  -0.1941   2.6355   4.0115

          k =-0.2500 0.5833 0.2500 (  2613 PWs)   bands (ev):

    -3.9042   0.5133   3.7736   4.3933

          k = 0.5833-0.2500 1.0833 (  2619 PWs)   bands (ev):

    -2.8765  -0.2149   2.2381   3.5572

          k = 0.4167-0.0833 0.9167 (  2613 PWs)   bands (ev):

    -2.0245  -0.9506   2.0592   2.8637

          k =-0.2500-1.0833 0.2500 (  2605 PWs)   bands (ev):

    -2.2385  -0.8649   1.9289   3.8127

          k =-0.4167 0.4167 0.4167 (  2602 PWs)   bands (ev):

    -3.8074  -0.3119   5.0941   5.0941

          k = 0.4167-0.4167 1.2500 (  2605 PWs)   bands (ev):

    -3.1840  -0.6106   3.2018   4.6388

     highest occupied level (ev):     6.1106

!    total energy              =     -17.05090107 Ry
     estimated scf accuracy    <          1.9E-11 Ry

     The total energy is the sum of the following terms:
     one-electron contribution =       5.01080416 Ry
     hartree contribution      =       1.07710790 Ry
     xc contribution           =      -6.22231185 Ry
     ewald contribution        =     -16.91650128 Ry

     convergence has been achieved in   7 iterations

     Forces acting on atoms (cartesian axes, Ry/au):

     atom    1 type  1   force =     0.00000000    0.00000000    0.00000000
     atom    2 type  1   force =    -0.00000000   -0.00000000   -0.00000000

     Total force =     0.000000     Total SCF correction =     0.000000

     Writing all to output data dir /fastscratch/tsievers/QE_TMP_DIR/si_ph_bench_poolsize_8_n_procs_24_0.save/
 
     init_run     :      0.49s CPU      2.80s WALL (       1 calls)
     electrons    :      1.54s CPU      2.54s WALL (       1 calls)
     forces       :      0.01s CPU      0.01s WALL (       1 calls)

     Called by init_run:
     wfcinit      :      0.46s CPU      0.76s WALL (       1 calls)
     potinit      :      0.00s CPU      1.97s WALL (       1 calls)
     hinit0       :      0.01s CPU      0.05s WALL (       1 calls)

     Called by electrons:
     c_bands      :      1.45s CPU      1.51s WALL (       8 calls)
     sum_band     :      0.08s CPU      0.09s WALL (       8 calls)
     v_of_rho     :      0.00s CPU      0.00s WALL (       8 calls)
     mix_rho      :      0.00s CPU      0.00s WALL (       8 calls)

     Called by c_bands:
     init_us_2    :      0.02s CPU      0.02s WALL (     504 calls)
     init_us_2:cp :      0.02s CPU      0.02s WALL (     504 calls)
     cegterg      :      1.36s CPU      1.41s WALL (     224 calls)

     Called by *egterg:
     cdiaghg      :      0.54s CPU      0.56s WALL (     847 calls)
     h_psi        :      0.95s CPU      0.97s WALL (     903 calls)
     g_psi        :      0.00s CPU      0.00s WALL (     651 calls)

     Called by h_psi:
     h_psi:calbec :      0.04s CPU      0.05s WALL (     903 calls)
     vloc_psi     :      0.88s CPU      0.90s WALL (     903 calls)
     add_vuspsi   :      0.02s CPU      0.02s WALL (     903 calls)

     General routines
     calbec       :      0.05s CPU      0.05s WALL (    1015 calls)
     fft          :      0.01s CPU      0.05s WALL (      28 calls)
     ffts         :      0.00s CPU      0.00s WALL (       8 calls)
     fftw         :      0.91s CPU      0.94s WALL (    7030 calls)
 
     Parallel routines
 
     PWSCF        :      2.35s CPU      8.85s WALL

 
   This run was terminated on:  18:47:36  13May2022            

=------------------------------------------------------------------------------=
   JOB DONE.
=------------------------------------------------------------------------------=

     Program PHONON v.7.0 starts on 13May2022 at 18:47:40 

     This program is part of the open-source Quantum ESPRESSO suite
     for quantum simulation of materials; please cite
         "P. Giannozzi et al., J. Phys.:Condens. Matter 21 395502 (2009);
         "P. Giannozzi et al., J. Phys.:Condens. Matter 29 465901 (2017);
         "P. Giannozzi et al., J. Chem. Phys. 152 154105 (2020);
          URL http://www.quantum-espresso.org", 
     in publications or presentations arising from this work. More details at
     http://www.quantum-espresso.org/quote

     Parallel version (MPI), running on    24 processors

     MPI processes distributed on     2 nodes
     path-images division:  nimage    =       2
     R & G space division:  proc/nbgrp/npool/nimage =      12
     57855 MiB available memory on the printing compute node when the environment starts
 
     Reading input from in_files/si_ph_bench_poolsize_8_n_procs_24_0.ph
      Title line not specified: using 'default'.

     Reading xml data from directory:

     /fastscratch/tsievers/QE_TMP_DIR/si_ph_bench_poolsize_8_n_procs_24_0.save/

     IMPORTANT: XC functional enforced from input :
     Exchange-correlation= PW
                           (   1   4   0   0   0   0   0)
     Any further DFT definition will be discarded
     Please, verify this is what you really want

 
     Parallelization info
     --------------------
     sticks:   dense  smooth     PW     G-vecs:    dense   smooth      PW
     Min          83      83     25                 1738     1738     289
     Max          84      84     26                 1741     1741     292
     Sum        1003    1003    301                20875    20875    3479
 
     Using Slab Decomposition
 
     Reading collected, re-writing distributed wavefunctions


     Dynamical matrices for ( 6, 6, 6)  uniform grid of q-points
     (  16 q-points):
       N         xq(1)         xq(2)         xq(3) 
       1   0.000000000   0.000000000   0.000000000
       2  -0.166666667   0.166666667  -0.166666667
       3  -0.333333333   0.333333333  -0.333333333
       4   0.500000000  -0.500000000   0.500000000
       5   0.000000000   0.333333333   0.000000000
       6  -0.166666667   0.500000000  -0.166666667
       7   0.666666667  -0.333333333   0.666666667
       8   0.500000000  -0.166666667   0.500000000
       9   0.333333333   0.000000000   0.333333333
      10   0.000000000   0.666666667   0.000000000
      11   0.833333333  -0.166666667   0.833333333
      12   0.666666667  -0.000000000   0.666666667
      13   0.000000000  -1.000000000   0.000000000
      14   0.666666667  -0.333333333   1.000000000
      15   0.500000000  -0.166666667   0.833333333
      16  -0.333333333  -1.000000000   0.000000000

      Image parallelization. There are  2 images and    76 representations
      The estimated total work is  1512 self-consistent (scf) runs
      I am image number     0 and my work is about  753 scf runs. I calculate: 
      q point number     1, representations:
       0 1 2
      q point number     2, representations:
       0 1 2 3 4
      q point number     3, representations:
       0 1 2 3 4
      q point number     4, representations:
       0 1 2 3 4
      q point number     5, representations:
       0 1 2 3 4
      q point number     6, representations:
       0 1 2 3 4 5 6
      q point number     7, representations:
       0 1 2 3 4 5 6
      q point number     8, representations:
       0 1 2 3 4 5 6
      q point number     9, representations:
       0 1 2 3 4

     Calculation of q =    0.0000000   0.0000000   0.0000000

     default                                                                    

     bravais-lattice index     =            2
     lattice parameter (alat)  =      10.1899  a.u.
     unit-cell volume          =     264.5151 (a.u.)^3
     number of atoms/cell      =            2
     number of atomic types    =            1
     kinetic-energy cut-off    =      70.0000  Ry
     charge density cut-off    =     280.0000  Ry
     convergence threshold     =      1.0E-15
     beta                      =       0.7000
     number of iterations used =            4
     Exchange-correlation= PW
                           (   1   4   0   0   0   0   0)


     celldm(1)=   10.18990  celldm(2)=    0.00000  celldm(3)=    0.00000
     celldm(4)=    0.00000  celldm(5)=    0.00000  celldm(6)=    0.00000

     crystal axes: (cart. coord. in units of alat)
               a(1) = ( -0.5000  0.0000  0.5000 )  
               a(2) = (  0.0000  0.5000  0.5000 )  
               a(3) = ( -0.5000  0.5000  0.0000 )  

     reciprocal axes: (cart. coord. in units 2 pi/alat)
               b(1) = ( -1.0000 -1.0000  1.0000 )  
               b(2) = (  1.0000  1.0000  1.0000 )  
               b(3) = ( -1.0000  1.0000 -1.0000 )  


     Atoms inside the unit cell: 

     Cartesian axes

     site n.  atom      mass           positions (alat units)
        1     Si  28.0855   tau(    1) = (    0.00000    0.00000    0.00000  )
        2     Si  28.0855   tau(    2) = (   -0.25000    0.25000    0.25000  )

     Computing dynamical matrix for 
                    q = (   0.0000000   0.0000000   0.0000000 )
 
     49 Sym.Ops. (with q -> -q+G )


     G cutoff =  736.4420  (   1741 G-vectors)     FFT grid: ( 40, 40, 40)
     number of k points=    28

     PseudoPot. # 1 for Si read from file:
     ./pseudos/Si.nc.UPF
     MD5 check sum: 9e2d726316af3d4752eea8ab0afbb951
     Pseudo is Norm-conserving + core correction, Zval =  4.0
     Generated using ONCVPSP code by D. R. Hamann
     Using radial grid of 1510 points,  6 beta functions with: 
                l(1) =   0
                l(2) =   0
                l(3) =   1
                l(4) =   1
                l(5) =   2
                l(6) =   2

     Mode symmetry, O_h (m-3m)  point group:


     Electric field:
     Dielectric constant
     Born effective charges in two ways 


     Atomic displacements:
     There are    2 irreducible representations

     Representation     1      3 modes -  To be done

     Representation     2      3 modes -  To be done



     Alpha used in Ewald sum =   2.8000
     PHONON       :      6.64s CPU     16.25s WALL


     Electric Fields Calculation

      iter #   1 total cpu time :    26.3 secs   av.it.:   6.5
      thresh= 1.000E-02 alpha_mix =  0.700 |ddv_scf|^2 =  7.990E-08

      iter #   2 total cpu time :    29.0 secs   av.it.:  11.9
      thresh= 2.827E-05 alpha_mix =  0.700 |ddv_scf|^2 =  3.424E-09

      iter #   3 total cpu time :    30.2 secs   av.it.:  11.7
      thresh= 5.852E-06 alpha_mix =  0.700 |ddv_scf|^2 =  3.860E-11

      iter #   4 total cpu time :    31.4 secs   av.it.:  12.0
      thresh= 6.213E-07 alpha_mix =  0.700 |ddv_scf|^2 =  2.290E-13

      iter #   5 total cpu time :    33.4 secs   av.it.:  11.0
      thresh= 4.785E-08 alpha_mix =  0.700 |ddv_scf|^2 =  8.406E-17

     End of electric fields calculation

          Dielectric constant in cartesian axis 

          (      13.312050249      -0.000000000       0.000000000 )
          (      -0.000000000      13.312050249       0.000000000 )
          (       0.000000000       0.000000000      13.312050249 )

          Effective charges (d Force / dE) in cartesian axis without acoustic sum rule applied (asr)

           atom      1   Si Mean Z*:       -0.00676
      Ex  (       -0.00676        0.00000        0.00000 )
      Ey  (        0.00000       -0.00676        0.00000 )
      Ez  (        0.00000       -0.00000       -0.00676 )
           atom      2   Si Mean Z*:       -0.00676
      Ex  (       -0.00676        0.00000        0.00000 )
      Ey  (        0.00000       -0.00676       -0.00000 )
      Ez  (        0.00000       -0.00000       -0.00676 )

          Effective charges Sum: Mean:       -0.01353
             -0.01353        0.00000        0.00000
              0.00000       -0.01353       -0.00000
              0.00000       -0.00000       -0.01353

          Effective charges (d Force / dE) in cartesian axis with asr applied: 
           atom      1   Si Mean Z*:       -0.00000
      E*x (       -0.00000        0.00000       -0.00000 )
      E*y (       -0.00000       -0.00000        0.00000 )
      E*z (        0.00000        0.00000       -0.00000 )
           atom      2   Si Mean Z*:        0.00000
      E*x (        0.00000       -0.00000        0.00000 )
      E*y (        0.00000        0.00000       -0.00000 )
      E*z (        0.00000       -0.00000        0.00000 )


     Representation #   1 modes #   1   2   3

     Self-consistent Calculation

      iter #   1 total cpu time :    36.5 secs   av.it.:   5.9
      thresh= 1.000E-02 alpha_mix =  0.700 |ddv_scf|^2 =  1.152E-08

      iter #   2 total cpu time :    38.9 secs   av.it.:  11.8
      thresh= 1.073E-05 alpha_mix =  0.700 |ddv_scf|^2 =  2.588E-10

      iter #   3 total cpu time :    40.7 secs   av.it.:  11.8
      thresh= 1.609E-06 alpha_mix =  0.700 |ddv_scf|^2 =  9.661E-12

      iter #   4 total cpu time :    42.0 secs   av.it.:  11.6
      thresh= 3.108E-07 alpha_mix =  0.700 |ddv_scf|^2 =  3.129E-14

      iter #   5 total cpu time :    45.0 secs   av.it.:  12.0
      thresh= 1.769E-08 alpha_mix =  0.700 |ddv_scf|^2 =  1.453E-16

     End of self-consistent calculation

     Convergence has been achieved 


     Representation #   2 modes #   4   5   6

     Self-consistent Calculation

      iter #   1 total cpu time :    52.3 secs   av.it.:   6.0
      thresh= 1.000E-02 alpha_mix =  0.700 |ddv_scf|^2 =  8.313E-09

      iter #   2 total cpu time :    54.2 secs   av.it.:  12.0
      thresh= 9.118E-06 alpha_mix =  0.700 |ddv_scf|^2 =  2.989E-10

      iter #   3 total cpu time :    56.0 secs   av.it.:  11.9
      thresh= 1.729E-06 alpha_mix =  0.700 |ddv_scf|^2 =  1.361E-11

      iter #   4 total cpu time :    58.3 secs   av.it.:  11.9
      thresh= 3.689E-07 alpha_mix =  0.700 |ddv_scf|^2 =  2.436E-14

      iter #   5 total cpu time :    59.5 secs   av.it.:  12.1
      thresh= 1.561E-08 alpha_mix =  0.700 |ddv_scf|^2 =  6.550E-17

     End of self-consistent calculation

     Convergence has been achieved 
 
     Number of q in the star =    1
     List of q in the star:
          1   0.000000000   0.000000000   0.000000000

          Dielectric constant in cartesian axis 

          (      13.312050249      -0.000000000       0.000000000 )
          (      -0.000000000      13.312050249       0.000000000 )
          (       0.000000000       0.000000000      13.312050249 )

          Effective charges (d Force / dE) in cartesian axis without acoustic sum rule applied (asr)

           atom      1   Si Mean Z*:       -0.00676
      Ex  (       -0.00676        0.00000        0.00000 )
      Ey  (        0.00000       -0.00676        0.00000 )
      Ez  (        0.00000       -0.00000       -0.00676 )
           atom      2   Si Mean Z*:       -0.00676
      Ex  (       -0.00676        0.00000        0.00000 )
      Ey  (        0.00000       -0.00676       -0.00000 )
      Ez  (        0.00000       -0.00000       -0.00676 )

          Effective charges Sum: Mean:       -0.01353
             -0.01353        0.00000        0.00000
              0.00000       -0.01353       -0.00000
              0.00000       -0.00000       -0.01353

          Effective charges (d Force / dE) in cartesian axis with asr applied: 
           atom      1   Si Mean Z*:       -0.00000
      E*x (       -0.00000        0.00000       -0.00000 )
      E*y (       -0.00000       -0.00000        0.00000 )
      E*z (        0.00000        0.00000       -0.00000 )
           atom      2   Si Mean Z*:        0.00000
      E*x (        0.00000       -0.00000        0.00000 )
      E*y (        0.00000        0.00000       -0.00000 )
      E*z (        0.00000       -0.00000        0.00000 )

          Effective charges (d P / du) in cartesian axis 

           atom      1   Si 
      Px  (       -0.00683       -0.00000       -0.00000 )
      Py  (        0.00000       -0.00683       -0.00000 )
      Pz  (        0.00000       -0.00000       -0.00683 )
           atom      2   Si 
      Px  (       -0.00683        0.00000       -0.00000 )
      Py  (        0.00000       -0.00683        0.00000 )
      Pz  (       -0.00000       -0.00000       -0.00683 )

     Diagonalizing the dynamical matrix

     q = (    0.000000000   0.000000000   0.000000000 ) 

 **************************************************************************
     freq (    1) =      -0.112881 [THz] =      -3.765310 [cm-1]
     freq (    2) =      -0.112881 [THz] =      -3.765310 [cm-1]
     freq (    3) =      -0.112881 [THz] =      -3.765310 [cm-1]
     freq (    4) =      15.412127 [THz] =     514.093205 [cm-1]
     freq (    5) =      15.412127 [THz] =     514.093205 [cm-1]
     freq (    6) =      15.412127 [THz] =     514.093205 [cm-1]
 **************************************************************************

     Mode symmetry, O_h (m-3m)  point group:

     freq (   1-   3) =         -3.8  [cm-1]   --> T_1u G_15  G_4- I  
     freq (   4-   6) =        514.1  [cm-1]   --> T_2g G_25' G_5+ R  

     Calculation of q =   -0.1666667   0.1666667  -0.1666667

     Subspace diagonalization in iterative solution of the eigenvalue problem:
     one sub-group per band group will be used
     scalapack distributed-memory algorithm (size of sub-group:  3*  3 procs)

 
     Parallelization info
     --------------------
     sticks:   dense  smooth     PW     G-vecs:    dense   smooth      PW
     Min          83      83     26                 1738     1738     307
     Max          84      84     27                 1741     1741     310
     Sum        1003    1003    313                20875    20875    3695
 
     Using Slab Decomposition
 

     Title: 
     default                                                                    


     bravais-lattice index     =            2
     lattice parameter (alat)  =      10.1899  a.u.
     unit-cell volume          =     264.5151 (a.u.)^3
     number of atoms/cell      =            2
     number of atomic types    =            1
     number of electrons       =         8.00
     number of Kohn-Sham states=            4
     kinetic-energy cutoff     =      70.0000  Ry
     charge density cutoff     =     280.0000  Ry
     Exchange-correlation= PW
                           (   1   4   0   0   0   0   0)

     celldm(1)=  10.189905  celldm(2)=   0.000000  celldm(3)=   0.000000
     celldm(4)=   0.000000  celldm(5)=   0.000000  celldm(6)=   0.000000

     crystal axes: (cart. coord. in units of alat)
               a(1) = (  -0.500000   0.000000   0.500000 )  
               a(2) = (   0.000000   0.500000   0.500000 )  
               a(3) = (  -0.500000   0.500000   0.000000 )  

     reciprocal axes: (cart. coord. in units 2 pi/alat)
               b(1) = ( -1.000000 -1.000000  1.000000 )  
               b(2) = (  1.000000  1.000000  1.000000 )  
               b(3) = ( -1.000000  1.000000 -1.000000 )  


     PseudoPot. # 1 for Si read from file:
     ./pseudos/Si.nc.UPF
     MD5 check sum: 9e2d726316af3d4752eea8ab0afbb951
     Pseudo is Norm-conserving + core correction, Zval =  4.0
     Generated using ONCVPSP code by D. R. Hamann
     Using radial grid of 1510 points,  6 beta functions with: 
                l(1) =   0
                l(2) =   0
                l(3) =   1
                l(4) =   1
                l(5) =   2
                l(6) =   2

     atomic species   valence    mass     pseudopotential
        Si             4.00    28.08550     Si( 1.00)

     48 Sym. Ops., with inversion, found



   Cartesian axes

     site n.     atom                  positions (alat units)
         1           Si  tau(   1) = (   0.0000000   0.0000000   0.0000000  )
         2           Si  tau(   2) = (  -0.2500000   0.2500000   0.2500000  )

     number of k points=   364

     Number of k-points >= 100: set verbosity='high' to print them.

     Dense  grid:    20875 G-vectors     FFT dimensions: (  40,  40,  40)

     Estimated max dynamical RAM per process >       2.27 MB

     Estimated total dynamical RAM >      27.19 MB

     The potential is recalculated from file :
     /fastscratch/tsievers/QE_TMP_DIR/_ph0/si_ph_bench_poolsize_8_n_procs_24_0.save/charge-density

     Starting wfcs are    8 atomic wfcs

     Band Structure Calculation
     Davidson diagonalization with overlap

     ethr =  1.25E-10,  avg # of iterations = 12.9

     total cpu time spent up to now is       98.0 secs

     End of band structure calculation

     Number of k-points >= 100: set verbosity='high' to print the bands.

     highest occupied level (ev):     6.1106

     Writing config to output data dir /fastscratch/tsievers/QE_TMP_DIR/_ph0/si_ph_bench_poolsize_8_n_procs_24_0.save/

     default                                                                    

     bravais-lattice index     =            2
     lattice parameter (alat)  =      10.1899  a.u.
     unit-cell volume          =     264.5151 (a.u.)^3
     number of atoms/cell      =            2
     number of atomic types    =            1
     kinetic-energy cut-off    =      70.0000  Ry
     charge density cut-off    =     280.0000  Ry
     convergence threshold     =      1.0E-15
     beta                      =       0.7000
     number of iterations used =            4
     Exchange-correlation= PW
                           (   1   4   0   0   0   0   0)


     celldm(1)=   10.18990  celldm(2)=    0.00000  celldm(3)=    0.00000
     celldm(4)=    0.00000  celldm(5)=    0.00000  celldm(6)=    0.00000

     crystal axes: (cart. coord. in units of alat)
               a(1) = ( -0.5000  0.0000  0.5000 )  
               a(2) = (  0.0000  0.5000  0.5000 )  
               a(3) = ( -0.5000  0.5000  0.0000 )  

     reciprocal axes: (cart. coord. in units 2 pi/alat)
               b(1) = ( -1.0000 -1.0000  1.0000 )  
               b(2) = (  1.0000  1.0000  1.0000 )  
               b(3) = ( -1.0000  1.0000 -1.0000 )  


     Atoms inside the unit cell: 

     Cartesian axes

     site n.  atom      mass           positions (alat units)
        1     Si  28.0855   tau(    1) = (    0.00000    0.00000    0.00000  )
        2     Si  28.0855   tau(    2) = (   -0.25000    0.25000    0.25000  )

     Computing dynamical matrix for 
                    q = (  -0.1666667   0.1666667  -0.1666667 )
 
      6 Sym.Ops. (no q -> -q+G )


     G cutoff =  736.4420  (   1741 G-vectors)     FFT grid: ( 40, 40, 40)
     number of k points=   364

     PseudoPot. # 1 for Si read from file:
     ./pseudos/Si.nc.UPF
     MD5 check sum: 9e2d726316af3d4752eea8ab0afbb951
     Pseudo is Norm-conserving + core correction, Zval =  4.0
     Generated using ONCVPSP code by D. R. Hamann
     Using radial grid of 1510 points,  6 beta functions with: 
                l(1) =   0
                l(2) =   0
                l(3) =   1
                l(4) =   1
                l(5) =   2
                l(6) =   2

     Mode symmetry, C_3v (3m)   point group:


     Atomic displacements:
     There are    4 irreducible representations

     Representation     1      1 modes -  To be done

     Representation     2      1 modes -  To be done

     Representation     3      2 modes -  To be done

     Representation     4      2 modes -  To be done



     Alpha used in Ewald sum =   2.8000
     PHONON       :   1m44.44s CPU   2m39.25s WALL



     Representation #   1 mode #   1

     Self-consistent Calculation

      iter #   1 total cpu time :   160.7 secs   av.it.:   6.6
      thresh= 1.000E-02 alpha_mix =  0.700 |ddv_scf|^2 =  1.078E-03

      iter #   2 total cpu time :   162.4 secs   av.it.:   9.0
      thresh= 3.283E-03 alpha_mix =  0.700 |ddv_scf|^2 =  3.531E-02

      iter #   3 total cpu time :   163.9 secs   av.it.:   7.6
      thresh= 1.000E-02 alpha_mix =  0.700 |ddv_scf|^2 =  2.874E-07

      iter #   4 total cpu time :   167.1 secs   av.it.:   9.2
      thresh= 5.361E-05 alpha_mix =  0.700 |ddv_scf|^2 =  9.382E-09

      iter #   5 total cpu time :   173.2 secs   av.it.:   9.6
      thresh= 9.686E-06 alpha_mix =  0.700 |ddv_scf|^2 =  4.640E-10

      iter #   6 total cpu time :   174.9 secs   av.it.:   8.7
      thresh= 2.154E-06 alpha_mix =  0.700 |ddv_scf|^2 =  1.181E-09

      iter #   7 total cpu time :   179.7 secs   av.it.:   8.0
      thresh= 3.436E-06 alpha_mix =  0.700 |ddv_scf|^2 =  6.614E-11

      iter #   8 total cpu time :   183.4 secs   av.it.:   8.6
      thresh= 8.133E-07 alpha_mix =  0.700 |ddv_scf|^2 =  5.138E-13

      iter #   9 total cpu time :   185.1 secs   av.it.:   8.3
      thresh= 7.168E-08 alpha_mix =  0.700 |ddv_scf|^2 =  1.164E-14

      iter #  10 total cpu time :   187.3 secs   av.it.:   8.7
      thresh= 1.079E-08 alpha_mix =  0.700 |ddv_scf|^2 =  1.148E-15

      iter #  11 total cpu time :   191.2 secs   av.it.:   9.1
      thresh= 3.388E-09 alpha_mix =  0.700 |ddv_scf|^2 =  1.077E-16

     End of self-consistent calculation

     Convergence has been achieved 


     Representation #   2 mode #   2

     Self-consistent Calculation

      iter #   1 total cpu time :   192.8 secs   av.it.:   6.6
      thresh= 1.000E-02 alpha_mix =  0.700 |ddv_scf|^2 =  1.078E-03

      iter #   2 total cpu time :   195.4 secs   av.it.:   9.0
      thresh= 3.283E-03 alpha_mix =  0.700 |ddv_scf|^2 =  3.531E-02

      iter #   3 total cpu time :   200.0 secs   av.it.:   7.6
      thresh= 1.000E-02 alpha_mix =  0.700 |ddv_scf|^2 =  2.874E-07

      iter #   4 total cpu time :   201.8 secs   av.it.:   9.2
      thresh= 5.361E-05 alpha_mix =  0.700 |ddv_scf|^2 =  9.382E-09

      iter #   5 total cpu time :   203.6 secs   av.it.:   9.6
      thresh= 9.686E-06 alpha_mix =  0.700 |ddv_scf|^2 =  4.639E-10

      iter #   6 total cpu time :   205.7 secs   av.it.:   8.7
      thresh= 2.154E-06 alpha_mix =  0.700 |ddv_scf|^2 =  1.181E-09

      iter #   7 total cpu time :   207.8 secs   av.it.:   8.0
      thresh= 3.436E-06 alpha_mix =  0.700 |ddv_scf|^2 =  6.614E-11

      iter #   8 total cpu time :   209.7 secs   av.it.:   8.6
      thresh= 8.133E-07 alpha_mix =  0.700 |ddv_scf|^2 =  5.138E-13

      iter #   9 total cpu time :   211.5 secs   av.it.:   8.3
      thresh= 7.168E-08 alpha_mix =  0.700 |ddv_scf|^2 =  1.164E-14

      iter #  10 total cpu time :   213.2 secs   av.it.:   8.6
      thresh= 1.079E-08 alpha_mix =  0.700 |ddv_scf|^2 =  1.148E-15

      iter #  11 total cpu time :   214.9 secs   av.it.:   9.1
      thresh= 3.388E-09 alpha_mix =  0.700 |ddv_scf|^2 =  1.077E-16

     End of self-consistent calculation

     Convergence has been achieved 


     Representation #   3 modes #   3   4

     Self-consistent Calculation

      iter #   1 total cpu time :   217.8 secs   av.it.:   6.1
      thresh= 1.000E-02 alpha_mix =  0.700 |ddv_scf|^2 =  2.811E-08

      iter #   2 total cpu time :   222.3 secs   av.it.:  11.5
      thresh= 1.677E-05 alpha_mix =  0.700 |ddv_scf|^2 =  1.251E-09

      iter #   3 total cpu time :   230.0 secs   av.it.:  11.4
      thresh= 3.537E-06 alpha_mix =  0.700 |ddv_scf|^2 =  3.267E-11

      iter #   4 total cpu time :   234.3 secs   av.it.:  11.5
      thresh= 5.715E-07 alpha_mix =  0.700 |ddv_scf|^2 =  3.769E-13

      iter #   5 total cpu time :   240.1 secs   av.it.:  11.5
      thresh= 6.139E-08 alpha_mix =  0.700 |ddv_scf|^2 =  8.000E-15

      iter #   6 total cpu time :   244.2 secs   av.it.:  11.8
      thresh= 8.944E-09 alpha_mix =  0.700 |ddv_scf|^2 =  3.632E-17

     End of self-consistent calculation

     Convergence has been achieved 


     Representation #   4 modes #   5   6

     Self-consistent Calculation

      iter #   1 total cpu time :   247.0 secs   av.it.:   6.0
      thresh= 1.000E-02 alpha_mix =  0.700 |ddv_scf|^2 =  2.811E-08

      iter #   2 total cpu time :   251.2 secs   av.it.:  11.5
      thresh= 1.677E-05 alpha_mix =  0.700 |ddv_scf|^2 =  1.251E-09

      iter #   3 total cpu time :   260.6 secs   av.it.:  11.4
      thresh= 3.537E-06 alpha_mix =  0.700 |ddv_scf|^2 =  3.267E-11

      iter #   4 total cpu time :   265.1 secs   av.it.:  11.5
      thresh= 5.715E-07 alpha_mix =  0.700 |ddv_scf|^2 =  3.770E-13

      iter #   5 total cpu time :   269.3 secs   av.it.:  11.4
      thresh= 6.140E-08 alpha_mix =  0.700 |ddv_scf|^2 =  8.010E-15

      iter #   6 total cpu time :   273.4 secs   av.it.:  11.8
      thresh= 8.950E-09 alpha_mix =  0.700 |ddv_scf|^2 =  3.630E-17

     End of self-consistent calculation

     Convergence has been achieved 
 
     Number of q in the star =    8
     List of q in the star:
          1  -0.166666667   0.166666667  -0.166666667
          2   0.166666667   0.166666667   0.166666667
          3  -0.166666667  -0.166666667  -0.166666667
          4   0.166666667  -0.166666667   0.166666667
          5   0.166666667  -0.166666667  -0.166666667
          6   0.166666667   0.166666667  -0.166666667
          7  -0.166666667  -0.166666667   0.166666667
          8  -0.166666667   0.166666667   0.166666667

     Diagonalizing the dynamical matrix

     q = (   -0.166666667   0.166666667  -0.166666667 ) 

 **************************************************************************
     freq (    1) =       2.202815 [THz] =      73.477993 [cm-1]
     freq (    2) =       2.202815 [THz] =      73.477993 [cm-1]
     freq (    3) =       4.748014 [THz] =     158.376685 [cm-1]
     freq (    4) =      15.023904 [THz] =     501.143489 [cm-1]
     freq (    5) =      15.065900 [THz] =     502.544317 [cm-1]
     freq (    6) =      15.065900 [THz] =     502.544317 [cm-1]
 **************************************************************************

     Mode symmetry, C_3v (3m)   point group:

     freq (   1-   2) =         73.5  [cm-1]   --> E    L_3           
     freq (   3-   3) =        158.4  [cm-1]   --> A_1  L_1           
     freq (   4-   4) =        501.1  [cm-1]   --> A_1  L_1           
     freq (   5-   6) =        502.5  [cm-1]   --> E    L_3           

     Calculation of q =   -0.3333333   0.3333333  -0.3333333
 
     Parallelization info
     --------------------
     sticks:   dense  smooth     PW     G-vecs:    dense   smooth      PW
     Min          83      83     26                 1738     1738     319
     Max          84      84     27                 1741     1741     324
     Sum        1003    1003    313                20875    20875    3839
 
     Using Slab Decomposition
 

     Title: 
     default                                                                    


     bravais-lattice index     =            2
     lattice parameter (alat)  =      10.1899  a.u.
     unit-cell volume          =     264.5151 (a.u.)^3
     number of atoms/cell      =            2
     number of atomic types    =            1
     number of electrons       =         8.00
     number of Kohn-Sham states=            4
     kinetic-energy cutoff     =      70.0000  Ry
     charge density cutoff     =     280.0000  Ry
     Exchange-correlation= PW
                           (   1   4   0   0   0   0   0)

     celldm(1)=  10.189905  celldm(2)=   0.000000  celldm(3)=   0.000000
     celldm(4)=   0.000000  celldm(5)=   0.000000  celldm(6)=   0.000000

     crystal axes: (cart. coord. in units of alat)
               a(1) = (  -0.500000   0.000000   0.500000 )  
               a(2) = (   0.000000   0.500000   0.500000 )  
               a(3) = (  -0.500000   0.500000   0.000000 )  

     reciprocal axes: (cart. coord. in units 2 pi/alat)
               b(1) = ( -1.000000 -1.000000  1.000000 )  
               b(2) = (  1.000000  1.000000  1.000000 )  
               b(3) = ( -1.000000  1.000000 -1.000000 )  


     PseudoPot. # 1 for Si read from file:
     ./pseudos/Si.nc.UPF
     MD5 check sum: 9e2d726316af3d4752eea8ab0afbb951
     Pseudo is Norm-conserving + core correction, Zval =  4.0
     Generated using ONCVPSP code by D. R. Hamann
     Using radial grid of 1510 points,  6 beta functions with: 
                l(1) =   0
                l(2) =   0
                l(3) =   1
                l(4) =   1
                l(5) =   2
                l(6) =   2

     atomic species   valence    mass     pseudopotential
        Si             4.00    28.08550     Si( 1.00)

     48 Sym. Ops., with inversion, found



   Cartesian axes

     site n.     atom                  positions (alat units)
         1           Si  tau(   1) = (   0.0000000   0.0000000   0.0000000  )
         2           Si  tau(   2) = (  -0.2500000   0.2500000   0.2500000  )

     number of k points=   364

     Number of k-points >= 100: set verbosity='high' to print them.

     Dense  grid:    20875 G-vectors     FFT dimensions: (  40,  40,  40)

     Estimated max dynamical RAM per process >       2.28 MB

     Estimated total dynamical RAM >      27.35 MB

     The potential is recalculated from file :
     /fastscratch/tsievers/QE_TMP_DIR/_ph0/si_ph_bench_poolsize_8_n_procs_24_0.save/charge-density

     Starting wfcs are    8 atomic wfcs

     Band Structure Calculation
     Davidson diagonalization with overlap

     ethr =  1.25E-10,  avg # of iterations = 12.9

     total cpu time spent up to now is      118.9 secs

     End of band structure calculation

     Number of k-points >= 100: set verbosity='high' to print the bands.

     highest occupied level (ev):     6.1106

     Writing config to output data dir /fastscratch/tsievers/QE_TMP_DIR/_ph0/si_ph_bench_poolsize_8_n_procs_24_0.save/

     default                                                                    

     bravais-lattice index     =            2
     lattice parameter (alat)  =      10.1899  a.u.
     unit-cell volume          =     264.5151 (a.u.)^3
     number of atoms/cell      =            2
     number of atomic types    =            1
     kinetic-energy cut-off    =      70.0000  Ry
     charge density cut-off    =     280.0000  Ry
     convergence threshold     =      1.0E-15
     beta                      =       0.7000
     number of iterations used =            4
     Exchange-correlation= PW
                           (   1   4   0   0   0   0   0)


     celldm(1)=   10.18990  celldm(2)=    0.00000  celldm(3)=    0.00000
     celldm(4)=    0.00000  celldm(5)=    0.00000  celldm(6)=    0.00000

     crystal axes: (cart. coord. in units of alat)
               a(1) = ( -0.5000  0.0000  0.5000 )  
               a(2) = (  0.0000  0.5000  0.5000 )  
               a(3) = ( -0.5000  0.5000  0.0000 )  

     reciprocal axes: (cart. coord. in units 2 pi/alat)
               b(1) = ( -1.0000 -1.0000  1.0000 )  
               b(2) = (  1.0000  1.0000  1.0000 )  
               b(3) = ( -1.0000  1.0000 -1.0000 )  


     Atoms inside the unit cell: 

     Cartesian axes

     site n.  atom      mass           positions (alat units)
        1     Si  28.0855   tau(    1) = (    0.00000    0.00000    0.00000  )
        2     Si  28.0855   tau(    2) = (   -0.25000    0.25000    0.25000  )

     Computing dynamical matrix for 
                    q = (  -0.3333333   0.3333333  -0.3333333 )
 
      6 Sym.Ops. (no q -> -q+G )


     G cutoff =  736.4420  (   1741 G-vectors)     FFT grid: ( 40, 40, 40)
     number of k points=   364

     PseudoPot. # 1 for Si read from file:
     ./pseudos/Si.nc.UPF
     MD5 check sum: 9e2d726316af3d4752eea8ab0afbb951
     Pseudo is Norm-conserving + core correction, Zval =  4.0
     Generated using ONCVPSP code by D. R. Hamann
     Using radial grid of 1510 points,  6 beta functions with: 
                l(1) =   0
                l(2) =   0
                l(3) =   1
                l(4) =   1
                l(5) =   2
                l(6) =   2

     Mode symmetry, C_3v (3m)   point group:


     Atomic displacements:
     There are    4 irreducible representations

     Representation     1      1 modes -  To be done

     Representation     2      1 modes -  To be done

     Representation     3      2 modes -  To be done

     Representation     4      2 modes -  To be done



     Alpha used in Ewald sum =   2.8000
     PHONON       :   3m31.93s CPU   4m57.92s WALL



     Representation #   1 mode #   1

     Self-consistent Calculation

      iter #   1 total cpu time :   299.3 secs   av.it.:   6.5
      thresh= 1.000E-02 alpha_mix =  0.700 |ddv_scf|^2 =  6.824E-05

      iter #   2 total cpu time :   301.2 secs   av.it.:   9.9
      thresh= 8.261E-04 alpha_mix =  0.700 |ddv_scf|^2 =  5.446E-04

      iter #   3 total cpu time :   302.8 secs   av.it.:   8.4
      thresh= 2.334E-03 alpha_mix =  0.700 |ddv_scf|^2 =  1.003E-07

      iter #   4 total cpu time :   304.7 secs   av.it.:  10.0
      thresh= 3.167E-05 alpha_mix =  0.700 |ddv_scf|^2 =  2.037E-09

      iter #   5 total cpu time :   307.2 secs   av.it.:  10.0
      thresh= 4.513E-06 alpha_mix =  0.700 |ddv_scf|^2 =  2.148E-11

      iter #   6 total cpu time :   309.3 secs   av.it.:  10.5
      thresh= 4.635E-07 alpha_mix =  0.700 |ddv_scf|^2 =  1.816E-12

      iter #   7 total cpu time :   311.2 secs   av.it.:  10.5
      thresh= 1.348E-07 alpha_mix =  0.700 |ddv_scf|^2 =  1.388E-13

      iter #   8 total cpu time :   313.3 secs   av.it.:  10.2
      thresh= 3.726E-08 alpha_mix =  0.700 |ddv_scf|^2 =  7.365E-13

      iter #   9 total cpu time :   315.1 secs   av.it.:   8.9
      thresh= 8.582E-08 alpha_mix =  0.700 |ddv_scf|^2 =  1.149E-14

      iter #  10 total cpu time :   316.8 secs   av.it.:   8.9
      thresh= 1.072E-08 alpha_mix =  0.700 |ddv_scf|^2 =  2.481E-16

     End of self-consistent calculation

     Convergence has been achieved 


     Representation #   2 mode #   2

     Self-consistent Calculation

      iter #   1 total cpu time :   318.8 secs   av.it.:   6.5
      thresh= 1.000E-02 alpha_mix =  0.700 |ddv_scf|^2 =  6.824E-05

      iter #   2 total cpu time :   320.7 secs   av.it.:   9.9
      thresh= 8.261E-04 alpha_mix =  0.700 |ddv_scf|^2 =  5.446E-04

      iter #   3 total cpu time :   322.4 secs   av.it.:   8.4
      thresh= 2.334E-03 alpha_mix =  0.700 |ddv_scf|^2 =  1.003E-07

      iter #   4 total cpu time :   324.3 secs   av.it.:  10.0
      thresh= 3.167E-05 alpha_mix =  0.700 |ddv_scf|^2 =  2.037E-09

      iter #   5 total cpu time :   326.2 secs   av.it.:  10.0
      thresh= 4.513E-06 alpha_mix =  0.700 |ddv_scf|^2 =  2.148E-11

      iter #   6 total cpu time :   328.3 secs   av.it.:  10.5
      thresh= 4.635E-07 alpha_mix =  0.700 |ddv_scf|^2 =  1.817E-12

      iter #   7 total cpu time :   330.3 secs   av.it.:  10.5
      thresh= 1.348E-07 alpha_mix =  0.700 |ddv_scf|^2 =  1.389E-13

      iter #   8 total cpu time :   332.8 secs   av.it.:  10.2
      thresh= 3.727E-08 alpha_mix =  0.700 |ddv_scf|^2 =  7.369E-13

      iter #   9 total cpu time :   334.6 secs   av.it.:   8.9
      thresh= 8.584E-08 alpha_mix =  0.700 |ddv_scf|^2 =  1.151E-14

      iter #  10 total cpu time :   336.5 secs   av.it.:   8.9
      thresh= 1.073E-08 alpha_mix =  0.700 |ddv_scf|^2 =  2.476E-16

     End of self-consistent calculation

     Convergence has been achieved 


     Representation #   3 modes #   3   4

     Self-consistent Calculation

      iter #   1 total cpu time :   341.9 secs   av.it.:   6.1
      thresh= 1.000E-02 alpha_mix =  0.700 |ddv_scf|^2 =  3.829E-08

      iter #   2 total cpu time :   346.1 secs   av.it.:  11.5
      thresh= 1.957E-05 alpha_mix =  0.700 |ddv_scf|^2 =  2.652E-09

      iter #   3 total cpu time :   350.2 secs   av.it.:  11.4
      thresh= 5.150E-06 alpha_mix =  0.700 |ddv_scf|^2 =  3.840E-11

      iter #   4 total cpu time :   354.3 secs   av.it.:  11.5
      thresh= 6.197E-07 alpha_mix =  0.700 |ddv_scf|^2 =  3.851E-13

      iter #   5 total cpu time :   358.5 secs   av.it.:  11.5
      thresh= 6.206E-08 alpha_mix =  0.700 |ddv_scf|^2 =  7.497E-15

      iter #   6 total cpu time :   365.2 secs   av.it.:  11.7
      thresh= 8.658E-09 alpha_mix =  0.700 |ddv_scf|^2 =  5.107E-17

     End of self-consistent calculation

     Convergence has been achieved 


     Representation #   4 modes #   5   6

     Self-consistent Calculation

      iter #   1 total cpu time :   368.5 secs   av.it.:   6.1
      thresh= 1.000E-02 alpha_mix =  0.700 |ddv_scf|^2 =  3.830E-08

      iter #   2 total cpu time :   372.7 secs   av.it.:  11.5
      thresh= 1.957E-05 alpha_mix =  0.700 |ddv_scf|^2 =  2.655E-09

      iter #   3 total cpu time :   378.5 secs   av.it.:  11.3
      thresh= 5.153E-06 alpha_mix =  0.700 |ddv_scf|^2 =  3.838E-11

      iter #   4 total cpu time :   383.1 secs   av.it.:  11.5
      thresh= 6.195E-07 alpha_mix =  0.700 |ddv_scf|^2 =  3.851E-13

      iter #   5 total cpu time :   387.4 secs   av.it.:  11.5
      thresh= 6.206E-08 alpha_mix =  0.700 |ddv_scf|^2 =  7.491E-15

      iter #   6 total cpu time :   396.9 secs   av.it.:  11.7
      thresh= 8.655E-09 alpha_mix =  0.700 |ddv_scf|^2 =  5.105E-17

     End of self-consistent calculation

     Convergence has been achieved 
 
     Number of q in the star =    8
     List of q in the star:
          1  -0.333333333   0.333333333  -0.333333333
          2   0.333333333   0.333333333   0.333333333
          3  -0.333333333  -0.333333333  -0.333333333
          4   0.333333333  -0.333333333   0.333333333
          5   0.333333333  -0.333333333  -0.333333333
          6   0.333333333   0.333333333  -0.333333333
          7  -0.333333333  -0.333333333   0.333333333
          8  -0.333333333   0.333333333   0.333333333

     Diagonalizing the dynamical matrix

     q = (   -0.333333333   0.333333333  -0.333333333 ) 

 **************************************************************************
     freq (    1) =       3.044151 [THz] =     101.541936 [cm-1]
     freq (    2) =       3.044151 [THz] =     101.541936 [cm-1]
     freq (    3) =       8.747617 [THz] =     291.789080 [cm-1]
     freq (    4) =      13.857177 [THz] =     462.225666 [cm-1]
     freq (    5) =      14.763310 [THz] =     492.451019 [cm-1]
     freq (    6) =      14.763310 [THz] =     492.451019 [cm-1]
 **************************************************************************

     Mode symmetry, C_3v (3m)   point group:

     freq (   1-   2) =        101.5  [cm-1]   --> E    L_3           
     freq (   3-   3) =        291.8  [cm-1]   --> A_1  L_1           
     freq (   4-   4) =        462.2  [cm-1]   --> A_1  L_1           
     freq (   5-   6) =        492.5  [cm-1]   --> E    L_3           

     Calculation of q =    0.5000000  -0.5000000   0.5000000
 
     Parallelization info
     --------------------
     sticks:   dense  smooth     PW     G-vecs:    dense   smooth      PW
     Min          83      83     27                 1738     1738     334
     Max          84      84     29                 1741     1741     336
     Sum        1003    1003    337                20875    20875    4015
 
     Using Slab Decomposition
 

     Title: 
     default                                                                    


     bravais-lattice index     =            2
     lattice parameter (alat)  =      10.1899  a.u.
     unit-cell volume          =     264.5151 (a.u.)^3
     number of atoms/cell      =            2
     number of atomic types    =            1
     number of electrons       =         8.00
     number of Kohn-Sham states=            4
     kinetic-energy cutoff     =      70.0000  Ry
     charge density cutoff     =     280.0000  Ry
     Exchange-correlation= PW
                           (   1   4   0   0   0   0   0)

     celldm(1)=  10.189905  celldm(2)=   0.000000  celldm(3)=   0.000000
     celldm(4)=   0.000000  celldm(5)=   0.000000  celldm(6)=   0.000000

     crystal axes: (cart. coord. in units of alat)
               a(1) = (  -0.500000   0.000000   0.500000 )  
               a(2) = (   0.000000   0.500000   0.500000 )  
               a(3) = (  -0.500000   0.500000   0.000000 )  

     reciprocal axes: (cart. coord. in units 2 pi/alat)
               b(1) = ( -1.000000 -1.000000  1.000000 )  
               b(2) = (  1.000000  1.000000  1.000000 )  
               b(3) = ( -1.000000  1.000000 -1.000000 )  


     PseudoPot. # 1 for Si read from file:
     ./pseudos/Si.nc.UPF
     MD5 check sum: 9e2d726316af3d4752eea8ab0afbb951
     Pseudo is Norm-conserving + core correction, Zval =  4.0
     Generated using ONCVPSP code by D. R. Hamann
     Using radial grid of 1510 points,  6 beta functions with: 
                l(1) =   0
                l(2) =   0
                l(3) =   1
                l(4) =   1
                l(5) =   2
                l(6) =   2

     atomic species   valence    mass     pseudopotential
        Si             4.00    28.08550     Si( 1.00)

     48 Sym. Ops., with inversion, found



   Cartesian axes

     site n.     atom                  positions (alat units)
         1           Si  tau(   1) = (   0.0000000   0.0000000   0.0000000  )
         2           Si  tau(   2) = (  -0.2500000   0.2500000   0.2500000  )

     number of k points=   182

     Number of k-points >= 100: set verbosity='high' to print them.

     Dense  grid:    20875 G-vectors     FFT dimensions: (  40,  40,  40)

     Estimated max dynamical RAM per process >       2.29 MB

     Estimated total dynamical RAM >      27.52 MB

     The potential is recalculated from file :
     /fastscratch/tsievers/QE_TMP_DIR/_ph0/si_ph_bench_poolsize_8_n_procs_24_0.save/charge-density

     Starting wfcs are    8 atomic wfcs

     Band Structure Calculation
     Davidson diagonalization with overlap

     ethr =  1.25E-10,  avg # of iterations = 12.9

     total cpu time spent up to now is      124.6 secs

     End of band structure calculation

     Number of k-points >= 100: set verbosity='high' to print the bands.

     highest occupied level (ev):     6.1106

     Writing config to output data dir /fastscratch/tsievers/QE_TMP_DIR/_ph0/si_ph_bench_poolsize_8_n_procs_24_0.save/

     default                                                                    

     bravais-lattice index     =            2
     lattice parameter (alat)  =      10.1899  a.u.
     unit-cell volume          =     264.5151 (a.u.)^3
     number of atoms/cell      =            2
     number of atomic types    =            1
     kinetic-energy cut-off    =      70.0000  Ry
     charge density cut-off    =     280.0000  Ry
     convergence threshold     =      1.0E-15
     beta                      =       0.7000
     number of iterations used =            4
     Exchange-correlation= PW
                           (   1   4   0   0   0   0   0)


     celldm(1)=   10.18990  celldm(2)=    0.00000  celldm(3)=    0.00000
     celldm(4)=    0.00000  celldm(5)=    0.00000  celldm(6)=    0.00000

     crystal axes: (cart. coord. in units of alat)
               a(1) = ( -0.5000  0.0000  0.5000 )  
               a(2) = (  0.0000  0.5000  0.5000 )  
               a(3) = ( -0.5000  0.5000  0.0000 )  

     reciprocal axes: (cart. coord. in units 2 pi/alat)
               b(1) = ( -1.0000 -1.0000  1.0000 )  
               b(2) = (  1.0000  1.0000  1.0000 )  
               b(3) = ( -1.0000  1.0000 -1.0000 )  


     Atoms inside the unit cell: 

     Cartesian axes

     site n.  atom      mass           positions (alat units)
        1     Si  28.0855   tau(    1) = (    0.00000    0.00000    0.00000  )
        2     Si  28.0855   tau(    2) = (   -0.25000    0.25000    0.25000  )

     Computing dynamical matrix for 
                    q = (   0.5000000  -0.5000000   0.5000000 )
 
     13 Sym.Ops. (with q -> -q+G )


     G cutoff =  736.4420  (   1741 G-vectors)     FFT grid: ( 40, 40, 40)
     number of k points=   182

     PseudoPot. # 1 for Si read from file:
     ./pseudos/Si.nc.UPF
     MD5 check sum: 9e2d726316af3d4752eea8ab0afbb951
     Pseudo is Norm-conserving + core correction, Zval =  4.0
     Generated using ONCVPSP code by D. R. Hamann
     Using radial grid of 1510 points,  6 beta functions with: 
                l(1) =   0
                l(2) =   0
                l(3) =   1
                l(4) =   1
                l(5) =   2
                l(6) =   2


     Atomic displacements:
     There are    4 irreducible representations

     Representation     1      1 modes -  To be done

     Representation     2      1 modes -  To be done

     Representation     3      2 modes -  To be done

     Representation     4      2 modes -  To be done



     Alpha used in Ewald sum =   2.8000
     PHONON       :   5m 0.67s CPU   6m48.80s WALL



     Representation #   1 mode #   1

     Self-consistent Calculation

      iter #   1 total cpu time :   409.5 secs   av.it.:   5.8
      thresh= 1.000E-02 alpha_mix =  0.700 |ddv_scf|^2 =  2.183E-06

      iter #   2 total cpu time :   411.5 secs   av.it.:  10.1
      thresh= 1.478E-04 alpha_mix =  0.700 |ddv_scf|^2 =  2.014E-06

      iter #   3 total cpu time :   413.2 secs   av.it.:   9.4
      thresh= 1.419E-04 alpha_mix =  0.700 |ddv_scf|^2 =  2.692E-10

      iter #   4 total cpu time :   414.2 secs   av.it.:  10.2
      thresh= 1.641E-06 alpha_mix =  0.700 |ddv_scf|^2 =  4.637E-12

      iter #   5 total cpu time :   415.2 secs   av.it.:  10.0
      thresh= 2.153E-07 alpha_mix =  0.700 |ddv_scf|^2 =  6.631E-14

      iter #   6 total cpu time :   416.1 secs   av.it.:  10.0
      thresh= 2.575E-08 alpha_mix =  0.700 |ddv_scf|^2 =  8.681E-16

     End of self-consistent calculation

     Convergence has been achieved 


     Representation #   2 mode #   2

     Self-consistent Calculation

      iter #   1 total cpu time :   417.4 secs   av.it.:   6.7
      thresh= 1.000E-02 alpha_mix =  0.700 |ddv_scf|^2 =  3.335E-05

      iter #   2 total cpu time :   418.4 secs   av.it.:  10.2
      thresh= 5.775E-04 alpha_mix =  0.700 |ddv_scf|^2 =  1.090E-04

      iter #   3 total cpu time :   419.4 secs   av.it.:   9.2
      thresh= 1.044E-03 alpha_mix =  0.700 |ddv_scf|^2 =  6.447E-09

      iter #   4 total cpu time :   420.4 secs   av.it.:   9.9
      thresh= 8.029E-06 alpha_mix =  0.700 |ddv_scf|^2 =  1.352E-10

      iter #   5 total cpu time :   421.4 secs   av.it.:  10.5
      thresh= 1.163E-06 alpha_mix =  0.700 |ddv_scf|^2 =  6.722E-12

      iter #   6 total cpu time :   422.4 secs   av.it.:  10.2
      thresh= 2.593E-07 alpha_mix =  0.700 |ddv_scf|^2 =  1.881E-13

      iter #   7 total cpu time :   423.3 secs   av.it.:   9.5
      thresh= 4.337E-08 alpha_mix =  0.700 |ddv_scf|^2 =  4.052E-17

     End of self-consistent calculation

     Convergence has been achieved 


     Representation #   3 modes #   3   4

     Self-consistent Calculation

      iter #   1 total cpu time :   424.9 secs   av.it.:   6.1
      thresh= 1.000E-02 alpha_mix =  0.700 |ddv_scf|^2 =  7.707E-08

      iter #   2 total cpu time :   427.1 secs   av.it.:  11.4
      thresh= 2.776E-05 alpha_mix =  0.700 |ddv_scf|^2 =  6.533E-09

      iter #   3 total cpu time :   429.3 secs   av.it.:  11.2
      thresh= 8.083E-06 alpha_mix =  0.700 |ddv_scf|^2 =  4.374E-11

      iter #   4 total cpu time :   432.2 secs   av.it.:  11.3
      thresh= 6.614E-07 alpha_mix =  0.700 |ddv_scf|^2 =  4.891E-14

      iter #   5 total cpu time :   435.1 secs   av.it.:  11.6
      thresh= 2.212E-08 alpha_mix =  0.700 |ddv_scf|^2 =  6.441E-16

     End of self-consistent calculation

     Convergence has been achieved 


     Representation #   4 modes #   5   6

     Self-consistent Calculation

      iter #   1 total cpu time :   438.7 secs   av.it.:   5.5
      thresh= 1.000E-02 alpha_mix =  0.700 |ddv_scf|^2 =  8.746E-09

      iter #   2 total cpu time :   440.9 secs   av.it.:  11.4
      thresh= 9.352E-06 alpha_mix =  0.700 |ddv_scf|^2 =  2.292E-10

      iter #   3 total cpu time :   443.0 secs   av.it.:  11.4
      thresh= 1.514E-06 alpha_mix =  0.700 |ddv_scf|^2 =  1.409E-11

      iter #   4 total cpu time :   446.1 secs   av.it.:  11.4
      thresh= 3.754E-07 alpha_mix =  0.700 |ddv_scf|^2 =  6.033E-14

      iter #   5 total cpu time :   448.1 secs   av.it.:  11.3
      thresh= 2.456E-08 alpha_mix =  0.700 |ddv_scf|^2 =  9.638E-16

     End of self-consistent calculation

     Convergence has been achieved 
 
     Number of q in the star =    4
     List of q in the star:
          1   0.500000000  -0.500000000   0.500000000
          2   0.500000000   0.500000000   0.500000000
          3  -0.500000000   0.500000000   0.500000000
          4   0.500000000   0.500000000  -0.500000000

     Diagonalizing the dynamical matrix

     q = (    0.500000000  -0.500000000   0.500000000 ) 

 **************************************************************************
     freq (    1) =       3.157230 [THz] =     105.313872 [cm-1]
     freq (    2) =       3.157230 [THz] =     105.313872 [cm-1]
     freq (    3) =      11.169102 [THz] =     372.561134 [cm-1]
     freq (    4) =      12.390681 [THz] =     413.308615 [cm-1]
     freq (    5) =      14.704272 [THz] =     490.481721 [cm-1]
     freq (    6) =      14.704272 [THz] =     490.481721 [cm-1]
 **************************************************************************

     Calculation of q =    0.0000000   0.3333333   0.0000000
 
     Parallelization info
     --------------------
     sticks:   dense  smooth     PW     G-vecs:    dense   smooth      PW
     Min          83      83     26                 1738     1738     309
     Max          84      84     27                 1741     1741     312
     Sum        1003    1003    313                20875    20875    3719
 
     Using Slab Decomposition
 

     Title: 
     default                                                                    


     bravais-lattice index     =            2
     lattice parameter (alat)  =      10.1899  a.u.
     unit-cell volume          =     264.5151 (a.u.)^3
     number of atoms/cell      =            2
     number of atomic types    =            1
     number of electrons       =         8.00
     number of Kohn-Sham states=            4
     kinetic-energy cutoff     =      70.0000  Ry
     charge density cutoff     =     280.0000  Ry
     Exchange-correlation= PW
                           (   1   4   0   0   0   0   0)

     celldm(1)=  10.189905  celldm(2)=   0.000000  celldm(3)=   0.000000
     celldm(4)=   0.000000  celldm(5)=   0.000000  celldm(6)=   0.000000

     crystal axes: (cart. coord. in units of alat)
               a(1) = (  -0.500000   0.000000   0.500000 )  
               a(2) = (   0.000000   0.500000   0.500000 )  
               a(3) = (  -0.500000   0.500000   0.000000 )  

     reciprocal axes: (cart. coord. in units 2 pi/alat)
               b(1) = ( -1.000000 -1.000000  1.000000 )  
               b(2) = (  1.000000  1.000000  1.000000 )  
               b(3) = ( -1.000000  1.000000 -1.000000 )  


     PseudoPot. # 1 for Si read from file:
     ./pseudos/Si.nc.UPF
     MD5 check sum: 9e2d726316af3d4752eea8ab0afbb951
     Pseudo is Norm-conserving + core correction, Zval =  4.0
     Generated using ONCVPSP code by D. R. Hamann
     Using radial grid of 1510 points,  6 beta functions with: 
                l(1) =   0
                l(2) =   0
                l(3) =   1
                l(4) =   1
                l(5) =   2
                l(6) =   2

     atomic species   valence    mass     pseudopotential
        Si             4.00    28.08550     Si( 1.00)

     48 Sym. Ops., with inversion, found



   Cartesian axes

     site n.     atom                  positions (alat units)
         1           Si  tau(   1) = (   0.0000000   0.0000000   0.0000000  )
         2           Si  tau(   2) = (  -0.2500000   0.2500000   0.2500000  )

     number of k points=   252

     Number of k-points >= 100: set verbosity='high' to print them.

     Dense  grid:    20875 G-vectors     FFT dimensions: (  40,  40,  40)

     Estimated max dynamical RAM per process >       2.27 MB

     Estimated total dynamical RAM >      27.20 MB

     The potential is recalculated from file :
     /fastscratch/tsievers/QE_TMP_DIR/_ph0/si_ph_bench_poolsize_8_n_procs_24_0.save/charge-density

     Starting wfcs are    8 atomic wfcs

     Band Structure Calculation
     Davidson diagonalization with overlap

     ethr =  1.25E-10,  avg # of iterations = 12.8

     total cpu time spent up to now is      133.1 secs

     End of band structure calculation

     Number of k-points >= 100: set verbosity='high' to print the bands.

     highest occupied level (ev):     6.1106

     Writing config to output data dir /fastscratch/tsievers/QE_TMP_DIR/_ph0/si_ph_bench_poolsize_8_n_procs_24_0.save/

     default                                                                    

     bravais-lattice index     =            2
     lattice parameter (alat)  =      10.1899  a.u.
     unit-cell volume          =     264.5151 (a.u.)^3
     number of atoms/cell      =            2
     number of atomic types    =            1
     kinetic-energy cut-off    =      70.0000  Ry
     charge density cut-off    =     280.0000  Ry
     convergence threshold     =      1.0E-15
     beta                      =       0.7000
     number of iterations used =            4
     Exchange-correlation= PW
                           (   1   4   0   0   0   0   0)


     celldm(1)=   10.18990  celldm(2)=    0.00000  celldm(3)=    0.00000
     celldm(4)=    0.00000  celldm(5)=    0.00000  celldm(6)=    0.00000

     crystal axes: (cart. coord. in units of alat)
               a(1) = ( -0.5000  0.0000  0.5000 )  
               a(2) = (  0.0000  0.5000  0.5000 )  
               a(3) = ( -0.5000  0.5000  0.0000 )  

     reciprocal axes: (cart. coord. in units 2 pi/alat)
               b(1) = ( -1.0000 -1.0000  1.0000 )  
               b(2) = (  1.0000  1.0000  1.0000 )  
               b(3) = ( -1.0000  1.0000 -1.0000 )  


     Atoms inside the unit cell: 

     Cartesian axes

     site n.  atom      mass           positions (alat units)
        1     Si  28.0855   tau(    1) = (    0.00000    0.00000    0.00000  )
        2     Si  28.0855   tau(    2) = (   -0.25000    0.25000    0.25000  )

     Computing dynamical matrix for 
                    q = (   0.0000000   0.3333333   0.0000000 )
 
      8 Sym.Ops. (no q -> -q+G )


     G cutoff =  736.4420  (   1741 G-vectors)     FFT grid: ( 40, 40, 40)
     number of k points=   252

     PseudoPot. # 1 for Si read from file:
     ./pseudos/Si.nc.UPF
     MD5 check sum: 9e2d726316af3d4752eea8ab0afbb951
     Pseudo is Norm-conserving + core correction, Zval =  4.0
     Generated using ONCVPSP code by D. R. Hamann
     Using radial grid of 1510 points,  6 beta functions with: 
                l(1) =   0
                l(2) =   0
                l(3) =   1
                l(4) =   1
                l(5) =   2
                l(6) =   2

     Mode symmetry, C_4v (4mm)  point group:


     Atomic displacements:
     There are    4 irreducible representations

     Representation     1      1 modes -  To be done

     Representation     2      1 modes -  To be done

     Representation     3      2 modes -  To be done

     Representation     4      2 modes -  To be done



     Alpha used in Ewald sum =   2.8000
     PHONON       :   5m38.96s CPU   7m37.01s WALL



     Representation #   1 mode #   1

     Self-consistent Calculation

      iter #   1 total cpu time :   458.0 secs   av.it.:   6.8
      thresh= 1.000E-02 alpha_mix =  0.700 |ddv_scf|^2 =  1.447E-03

      iter #   2 total cpu time :   459.4 secs   av.it.:   9.2
      thresh= 3.805E-03 alpha_mix =  0.700 |ddv_scf|^2 =  4.414E-02

      iter #   3 total cpu time :   460.6 secs   av.it.:   8.1
      thresh= 1.000E-02 alpha_mix =  0.700 |ddv_scf|^2 =  4.064E-08

      iter #   4 total cpu time :   461.8 secs   av.it.:   9.1
      thresh= 2.016E-05 alpha_mix =  0.700 |ddv_scf|^2 =  1.927E-09

      iter #   5 total cpu time :   463.4 secs   av.it.:   8.7
      thresh= 4.390E-06 alpha_mix =  0.700 |ddv_scf|^2 =  6.279E-10

      iter #   6 total cpu time :   464.6 secs   av.it.:   8.3
      thresh= 2.506E-06 alpha_mix =  0.700 |ddv_scf|^2 =  8.423E-13

      iter #   7 total cpu time :   465.8 secs   av.it.:   8.6
      thresh= 9.178E-08 alpha_mix =  0.700 |ddv_scf|^2 =  1.920E-14

      iter #   8 total cpu time :   466.9 secs   av.it.:   8.5
      thresh= 1.385E-08 alpha_mix =  0.700 |ddv_scf|^2 =  2.444E-16

     End of self-consistent calculation

     Convergence has been achieved 


     Representation #   2 mode #   2

     Self-consistent Calculation

      iter #   1 total cpu time :   470.7 secs   av.it.:   5.9
      thresh= 1.000E-02 alpha_mix =  0.700 |ddv_scf|^2 =  2.210E-07

      iter #   2 total cpu time :   472.1 secs   av.it.:  10.6
      thresh= 4.701E-05 alpha_mix =  0.700 |ddv_scf|^2 =  3.573E-08

      iter #   3 total cpu time :   473.5 secs   av.it.:  10.3
      thresh= 1.890E-05 alpha_mix =  0.700 |ddv_scf|^2 =  4.519E-10

      iter #   4 total cpu time :   474.8 secs   av.it.:  10.4
      thresh= 2.126E-06 alpha_mix =  0.700 |ddv_scf|^2 =  1.877E-11

      iter #   5 total cpu time :   476.2 secs   av.it.:  10.5
      thresh= 4.333E-07 alpha_mix =  0.700 |ddv_scf|^2 =  4.275E-14

      iter #   6 total cpu time :   482.5 secs   av.it.:  10.6
      thresh= 2.068E-08 alpha_mix =  0.700 |ddv_scf|^2 =  8.545E-16

     End of self-consistent calculation

     Convergence has been achieved 


     Representation #   3 modes #   3   4

     Self-consistent Calculation

      iter #   1 total cpu time :   495.8 secs   av.it.:   6.0
      thresh= 1.000E-02 alpha_mix =  0.700 |ddv_scf|^2 =  3.999E-08

      iter #   2 total cpu time :   498.7 secs   av.it.:  11.5
      thresh= 2.000E-05 alpha_mix =  0.700 |ddv_scf|^2 =  3.645E-09

      iter #   3 total cpu time :   501.6 secs   av.it.:  11.3
      thresh= 6.038E-06 alpha_mix =  0.700 |ddv_scf|^2 =  4.249E-11

      iter #   4 total cpu time :   505.0 secs   av.it.:  11.4
      thresh= 6.519E-07 alpha_mix =  0.700 |ddv_scf|^2 =  4.779E-13

      iter #   5 total cpu time :   507.9 secs   av.it.:  11.4
      thresh= 6.913E-08 alpha_mix =  0.700 |ddv_scf|^2 =  7.935E-15

      iter #   6 total cpu time :   510.8 secs   av.it.:  11.8
      thresh= 8.908E-09 alpha_mix =  0.700 |ddv_scf|^2 =  3.231E-17

     End of self-consistent calculation

     Convergence has been achieved 


     Representation #   4 modes #   5   6

     Self-consistent Calculation

      iter #   1 total cpu time :   513.5 secs   av.it.:   6.0
      thresh= 1.000E-02 alpha_mix =  0.700 |ddv_scf|^2 =  5.272E-08

      iter #   2 total cpu time :   516.4 secs   av.it.:  11.4
      thresh= 2.296E-05 alpha_mix =  0.700 |ddv_scf|^2 =  4.972E-09

      iter #   3 total cpu time :   519.6 secs   av.it.:  11.1
      thresh= 7.051E-06 alpha_mix =  0.700 |ddv_scf|^2 =  4.498E-11

      iter #   4 total cpu time :   523.9 secs   av.it.:  11.4
      thresh= 6.707E-07 alpha_mix =  0.700 |ddv_scf|^2 =  3.058E-13

      iter #   5 total cpu time :   526.8 secs   av.it.:  11.3
      thresh= 5.530E-08 alpha_mix =  0.700 |ddv_scf|^2 =  7.265E-15

      iter #   6 total cpu time :   529.7 secs   av.it.:  11.7
      thresh= 8.523E-09 alpha_mix =  0.700 |ddv_scf|^2 =  3.075E-17

     End of self-consistent calculation

     Convergence has been achieved 
 
     Number of q in the star =    6
     List of q in the star:
          1   0.000000000   0.333333333   0.000000000
          2   0.333333333   0.000000000   0.000000000
          3   0.000000000   0.000000000   0.333333333
          4   0.000000000  -0.333333333   0.000000000
          5  -0.333333333   0.000000000   0.000000000
          6   0.000000000   0.000000000  -0.333333333

     Diagonalizing the dynamical matrix

     q = (    0.000000000   0.333333333   0.000000000 ) 

 **************************************************************************
     freq (    1) =       2.948500 [THz] =      98.351378 [cm-1]
     freq (    2) =       2.948500 [THz] =      98.351378 [cm-1]
     freq (    3) =       4.953354 [THz] =     165.226115 [cm-1]
     freq (    4) =      14.670288 [THz] =     489.348131 [cm-1]
     freq (    5) =      14.670288 [THz] =     489.348131 [cm-1]
     freq (    6) =      15.142900 [THz] =     505.112780 [cm-1]
 **************************************************************************

     Mode symmetry, C_4v (4mm)  point group:

     freq (   1-   2) =         98.4  [cm-1]   --> E    G_5 D_5       
     freq (   3-   3) =        165.2  [cm-1]   --> A_1  G_1 D_1       
     freq (   4-   5) =        489.3  [cm-1]   --> E    G_5 D_5       
     freq (   6-   6) =        505.1  [cm-1]   --> B_2  G_4 D_2'      

     Calculation of q =   -0.1666667   0.5000000  -0.1666667
 
     Parallelization info
     --------------------
     sticks:   dense  smooth     PW     G-vecs:    dense   smooth      PW
     Min          83      83     26                 1738     1738     319
     Max          84      84     27                 1741     1741     324
     Sum        1003    1003    313                20875    20875    3839
 
     Using Slab Decomposition
 

     Title: 
     default                                                                    


     bravais-lattice index     =            2
     lattice parameter (alat)  =      10.1899  a.u.
     unit-cell volume          =     264.5151 (a.u.)^3
     number of atoms/cell      =            2
     number of atomic types    =            1
     number of electrons       =         8.00
     number of Kohn-Sham states=            4
     kinetic-energy cutoff     =      70.0000  Ry
     charge density cutoff     =     280.0000  Ry
     Exchange-correlation= PW
                           (   1   4   0   0   0   0   0)

     celldm(1)=  10.189905  celldm(2)=   0.000000  celldm(3)=   0.000000
     celldm(4)=   0.000000  celldm(5)=   0.000000  celldm(6)=   0.000000

     crystal axes: (cart. coord. in units of alat)
               a(1) = (  -0.500000   0.000000   0.500000 )  
               a(2) = (   0.000000   0.500000   0.500000 )  
               a(3) = (  -0.500000   0.500000   0.000000 )  

     reciprocal axes: (cart. coord. in units 2 pi/alat)
               b(1) = ( -1.000000 -1.000000  1.000000 )  
               b(2) = (  1.000000  1.000000  1.000000 )  
               b(3) = ( -1.000000  1.000000 -1.000000 )  


     PseudoPot. # 1 for Si read from file:
     ./pseudos/Si.nc.UPF
     MD5 check sum: 9e2d726316af3d4752eea8ab0afbb951
     Pseudo is Norm-conserving + core correction, Zval =  4.0
     Generated using ONCVPSP code by D. R. Hamann
     Using radial grid of 1510 points,  6 beta functions with: 
                l(1) =   0
                l(2) =   0
                l(3) =   1
                l(4) =   1
                l(5) =   2
                l(6) =   2

     atomic species   valence    mass     pseudopotential
        Si             4.00    28.08550     Si( 1.00)

     48 Sym. Ops., with inversion, found



   Cartesian axes

     site n.     atom                  positions (alat units)
         1           Si  tau(   1) = (   0.0000000   0.0000000   0.0000000  )
         2           Si  tau(   2) = (  -0.2500000   0.2500000   0.2500000  )

     number of k points=   936

     Number of k-points >= 100: set verbosity='high' to print them.

     Dense  grid:    20875 G-vectors     FFT dimensions: (  40,  40,  40)

     Estimated max dynamical RAM per process >       2.28 MB

     Estimated total dynamical RAM >      27.34 MB

     The potential is recalculated from file :
     /fastscratch/tsievers/QE_TMP_DIR/_ph0/si_ph_bench_poolsize_8_n_procs_24_0.save/charge-density

     Starting wfcs are    8 atomic wfcs

     Band Structure Calculation
     Davidson diagonalization with overlap

     ethr =  1.25E-10,  avg # of iterations = 12.8

     total cpu time spent up to now is      166.5 secs

     End of band structure calculation

     Number of k-points >= 100: set verbosity='high' to print the bands.

     highest occupied level (ev):     6.1106

     Writing config to output data dir /fastscratch/tsievers/QE_TMP_DIR/_ph0/si_ph_bench_poolsize_8_n_procs_24_0.save/

     default                                                                    

     bravais-lattice index     =            2
     lattice parameter (alat)  =      10.1899  a.u.
     unit-cell volume          =     264.5151 (a.u.)^3
     number of atoms/cell      =            2
     number of atomic types    =            1
     kinetic-energy cut-off    =      70.0000  Ry
     charge density cut-off    =     280.0000  Ry
     convergence threshold     =      1.0E-15
     beta                      =       0.7000
[...]
      thresh= 1.351E-05 alpha_mix =  0.700 |ddv_scf|^2 =  1.729E-10

      iter #   4 total cpu time :  1440.7 secs   av.it.:  10.6
      thresh= 1.315E-06 alpha_mix =  0.700 |ddv_scf|^2 =  1.356E-12

      iter #   5 total cpu time :  1445.7 secs   av.it.:  10.6
      thresh= 1.165E-07 alpha_mix =  0.700 |ddv_scf|^2 =  2.704E-14

      iter #   6 total cpu time :  1450.6 secs   av.it.:  10.8
      thresh= 1.645E-08 alpha_mix =  0.700 |ddv_scf|^2 =  1.768E-16

     End of self-consistent calculation

     Convergence has been achieved 


     Representation #   6 mode #   6

     Self-consistent Calculation

      iter #   1 total cpu time :  1454.2 secs   av.it.:   6.0
      thresh= 1.000E-02 alpha_mix =  0.700 |ddv_scf|^2 =  1.888E-07

      iter #   2 total cpu time :  1459.2 secs   av.it.:  10.6
      thresh= 4.345E-05 alpha_mix =  0.700 |ddv_scf|^2 =  1.824E-08

      iter #   3 total cpu time :  1464.3 secs   av.it.:  10.4
      thresh= 1.351E-05 alpha_mix =  0.700 |ddv_scf|^2 =  1.729E-10

      iter #   4 total cpu time :  1471.2 secs   av.it.:  10.6
      thresh= 1.315E-06 alpha_mix =  0.700 |ddv_scf|^2 =  1.356E-12

      iter #   5 total cpu time :  1476.2 secs   av.it.:  10.6
      thresh= 1.165E-07 alpha_mix =  0.700 |ddv_scf|^2 =  2.705E-14

      iter #   6 total cpu time :  1481.2 secs   av.it.:  10.8
      thresh= 1.645E-08 alpha_mix =  0.700 |ddv_scf|^2 =  1.769E-16

     End of self-consistent calculation

     Convergence has been achieved 
 
     Number of q in the star =   24
     List of q in the star:
          1   0.500000000  -0.166666667   0.500000000
          2  -0.500000000  -0.166666667  -0.500000000
          3   0.500000000  -0.166666667  -0.500000000
          4  -0.500000000  -0.166666667   0.500000000
          5  -0.166666667   0.500000000  -0.500000000
          6  -0.500000000   0.500000000  -0.166666667
          7   0.500000000   0.166666667   0.500000000
          8  -0.500000000   0.166666667   0.500000000
          9   0.500000000   0.166666667  -0.500000000
         10  -0.166666667   0.500000000   0.500000000
         11   0.166666667   0.500000000  -0.500000000
         12  -0.166666667  -0.500000000  -0.500000000
         13   0.500000000  -0.500000000   0.166666667
         14   0.500000000   0.500000000  -0.166666667
         15  -0.500000000  -0.500000000  -0.166666667
         16  -0.500000000   0.500000000   0.166666667
         17   0.166666667  -0.500000000   0.500000000
         18   0.166666667   0.500000000   0.500000000
         19  -0.500000000   0.166666667  -0.500000000
         20  -0.166666667  -0.500000000   0.500000000
         21  -0.500000000  -0.500000000   0.166666667
         22   0.500000000   0.500000000   0.166666667
         23   0.166666667  -0.500000000  -0.500000000
         24   0.500000000  -0.500000000  -0.166666667

     Diagonalizing the dynamical matrix

     q = (    0.500000000  -0.166666667   0.500000000 ) 

 **************************************************************************
     freq (    1) =       3.831714 [THz] =     127.812237 [cm-1]
     freq (    2) =       5.057772 [THz] =     168.709120 [cm-1]
     freq (    3) =       9.109199 [THz] =     303.850163 [cm-1]
     freq (    4) =      12.612314 [THz] =     420.701501 [cm-1]
     freq (    5) =      14.335935 [THz] =     478.195321 [cm-1]
     freq (    6) =      14.664652 [THz] =     489.160146 [cm-1]
 **************************************************************************

     Mode symmetry, C_s (m)     point group:

     freq (   1-   1) =        127.8  [cm-1]   --> A''                
     freq (   2-   2) =        168.7  [cm-1]   --> A'                 
     freq (   3-   3) =        303.9  [cm-1]   --> A'                 
     freq (   4-   4) =        420.7  [cm-1]   --> A'                 
     freq (   5-   5) =        478.2  [cm-1]   --> A''                
     freq (   6-   6) =        489.2  [cm-1]   --> A'                 

     Calculation of q =    0.3333333   0.0000000   0.3333333
 
     Parallelization info
     --------------------
     sticks:   dense  smooth     PW     G-vecs:    dense   smooth      PW
     Min          83      83     26                 1738     1738     319
     Max          84      84     27                 1741     1741     324
     Sum        1003    1003    313                20875    20875    3839
 
     Using Slab Decomposition
 

     Title: 
     default                                                                    


     bravais-lattice index     =            2
     lattice parameter (alat)  =      10.1899  a.u.
     unit-cell volume          =     264.5151 (a.u.)^3
     number of atoms/cell      =            2
     number of atomic types    =            1
     number of electrons       =         8.00
     number of Kohn-Sham states=            4
     kinetic-energy cutoff     =      70.0000  Ry
     charge density cutoff     =     280.0000  Ry
     Exchange-correlation= PW
                           (   1   4   0   0   0   0   0)

     celldm(1)=  10.189905  celldm(2)=   0.000000  celldm(3)=   0.000000
     celldm(4)=   0.000000  celldm(5)=   0.000000  celldm(6)=   0.000000

     crystal axes: (cart. coord. in units of alat)
               a(1) = (  -0.500000   0.000000   0.500000 )  
               a(2) = (   0.000000   0.500000   0.500000 )  
               a(3) = (  -0.500000   0.500000   0.000000 )  

     reciprocal axes: (cart. coord. in units 2 pi/alat)
               b(1) = ( -1.000000 -1.000000  1.000000 )  
               b(2) = (  1.000000  1.000000  1.000000 )  
               b(3) = ( -1.000000  1.000000 -1.000000 )  


     PseudoPot. # 1 for Si read from file:
     ./pseudos/Si.nc.UPF
     MD5 check sum: 9e2d726316af3d4752eea8ab0afbb951
     Pseudo is Norm-conserving + core correction, Zval =  4.0
     Generated using ONCVPSP code by D. R. Hamann
     Using radial grid of 1510 points,  6 beta functions with: 
                l(1) =   0
                l(2) =   0
                l(3) =   1
                l(4) =   1
                l(5) =   2
                l(6) =   2

     atomic species   valence    mass     pseudopotential
        Si             4.00    28.08550     Si( 1.00)

     48 Sym. Ops., with inversion, found



   Cartesian axes

     site n.     atom                  positions (alat units)
         1           Si  tau(   1) = (   0.0000000   0.0000000   0.0000000  )
         2           Si  tau(   2) = (  -0.2500000   0.2500000   0.2500000  )

     number of k points=   468

     Number of k-points >= 100: set verbosity='high' to print them.

     Dense  grid:    20875 G-vectors     FFT dimensions: (  40,  40,  40)

     Estimated max dynamical RAM per process >       2.27 MB

     Estimated total dynamical RAM >      27.29 MB

     The potential is recalculated from file :
     /fastscratch/tsievers/QE_TMP_DIR/_ph0/si_ph_bench_poolsize_8_n_procs_24_0.save/charge-density

     Starting wfcs are    8 atomic wfcs

     Band Structure Calculation
     Davidson diagonalization with overlap

     ethr =  1.25E-10,  avg # of iterations = 12.8

     total cpu time spent up to now is      239.8 secs

     End of band structure calculation

     Number of k-points >= 100: set verbosity='high' to print the bands.

     highest occupied level (ev):     6.1106

     Writing config to output data dir /fastscratch/tsievers/QE_TMP_DIR/_ph0/si_ph_bench_poolsize_8_n_procs_24_0.save/

     default                                                                    

     bravais-lattice index     =            2
     lattice parameter (alat)  =      10.1899  a.u.
     unit-cell volume          =     264.5151 (a.u.)^3
     number of atoms/cell      =            2
     number of atomic types    =            1
     kinetic-energy cut-off    =      70.0000  Ry
     charge density cut-off    =     280.0000  Ry
     convergence threshold     =      1.0E-15
     beta                      =       0.7000
     number of iterations used =            4
     Exchange-correlation= PW
                           (   1   4   0   0   0   0   0)


     celldm(1)=   10.18990  celldm(2)=    0.00000  celldm(3)=    0.00000
     celldm(4)=    0.00000  celldm(5)=    0.00000  celldm(6)=    0.00000

     crystal axes: (cart. coord. in units of alat)
               a(1) = ( -0.5000  0.0000  0.5000 )  
               a(2) = (  0.0000  0.5000  0.5000 )  
               a(3) = ( -0.5000  0.5000  0.0000 )  

     reciprocal axes: (cart. coord. in units 2 pi/alat)
               b(1) = ( -1.0000 -1.0000  1.0000 )  
               b(2) = (  1.0000  1.0000  1.0000 )  
               b(3) = ( -1.0000  1.0000 -1.0000 )  


     Atoms inside the unit cell: 

     Cartesian axes

     site n.  atom      mass           positions (alat units)
        1     Si  28.0855   tau(    1) = (    0.00000    0.00000    0.00000  )
        2     Si  28.0855   tau(    2) = (   -0.25000    0.25000    0.25000  )

     Computing dynamical matrix for 
                    q = (   0.3333333   0.0000000   0.3333333 )
 
      4 Sym.Ops. (no q -> -q+G )


     G cutoff =  736.4420  (   1741 G-vectors)     FFT grid: ( 40, 40, 40)
     number of k points=   468

     PseudoPot. # 1 for Si read from file:
     ./pseudos/Si.nc.UPF
     MD5 check sum: 9e2d726316af3d4752eea8ab0afbb951
     Pseudo is Norm-conserving + core correction, Zval =  4.0
     Generated using ONCVPSP code by D. R. Hamann
     Using radial grid of 1510 points,  6 beta functions with: 
                l(1) =   0
                l(2) =   0
                l(3) =   1
                l(4) =   1
                l(5) =   2
                l(6) =   2

     Mode symmetry, C_2v (mm2)  point group:


     Atomic displacements:
     There are    6 irreducible representations

     Representation     1      1 modes -  To be done

     Representation     2      1 modes -  To be done

     Representation     3      1 modes -  To be done

     Representation     4      1 modes -  To be done

     Representation     5      1 modes -  Not done in this run

     Representation     6      1 modes -  Not done in this run

     Compute atoms:     1,    2,



     Alpha used in Ewald sum =   2.8000
     PHONON       :  20m35.73s CPU  24m56.52s WALL



     Representation #   1 mode #   1

     Self-consistent Calculation

      iter #   1 total cpu time :  1498.3 secs   av.it.:   6.3
      thresh= 1.000E-02 alpha_mix =  0.700 |ddv_scf|^2 =  3.937E-05

      iter #   2 total cpu time :  1500.6 secs   av.it.:   9.9
      thresh= 6.275E-04 alpha_mix =  0.700 |ddv_scf|^2 =  6.098E-04

      iter #   3 total cpu time :  1502.6 secs   av.it.:   8.1
      thresh= 2.469E-03 alpha_mix =  0.700 |ddv_scf|^2 =  4.569E-08

      iter #   4 total cpu time :  1505.0 secs   av.it.:  10.1
      thresh= 2.138E-05 alpha_mix =  0.700 |ddv_scf|^2 =  1.373E-09

      iter #   5 total cpu time :  1507.4 secs   av.it.:  10.0
      thresh= 3.705E-06 alpha_mix =  0.700 |ddv_scf|^2 =  5.088E-11

      iter #   6 total cpu time :  1509.8 secs   av.it.:   9.7
      thresh= 7.133E-07 alpha_mix =  0.700 |ddv_scf|^2 =  2.895E-11

      iter #   7 total cpu time :  1511.8 secs   av.it.:   8.2
      thresh= 5.380E-07 alpha_mix =  0.700 |ddv_scf|^2 =  8.363E-14

      iter #   8 total cpu time :  1514.3 secs   av.it.:  10.1
      thresh= 2.892E-08 alpha_mix =  0.700 |ddv_scf|^2 =  6.592E-15

      iter #   9 total cpu time :  1516.6 secs   av.it.:   9.6
      thresh= 8.119E-09 alpha_mix =  0.700 |ddv_scf|^2 =  9.317E-16

     End of self-consistent calculation

     Convergence has been achieved 


     Representation #   2 mode #   2

     Self-consistent Calculation

      iter #   1 total cpu time :  1518.6 secs   av.it.:   6.9
      thresh= 1.000E-02 alpha_mix =  0.700 |ddv_scf|^2 =  3.430E-04

      iter #   2 total cpu time :  1521.0 secs   av.it.:   9.8
      thresh= 1.852E-03 alpha_mix =  0.700 |ddv_scf|^2 =  5.480E-03

      iter #   3 total cpu time :  1523.0 secs   av.it.:   8.1
      thresh= 7.403E-03 alpha_mix =  0.700 |ddv_scf|^2 =  9.530E-08

      iter #   4 total cpu time :  1525.4 secs   av.it.:  10.0
      thresh= 3.087E-05 alpha_mix =  0.700 |ddv_scf|^2 =  7.494E-09

      iter #   5 total cpu time :  1527.9 secs   av.it.:   9.9
      thresh= 8.657E-06 alpha_mix =  0.700 |ddv_scf|^2 =  6.225E-11

      iter #   6 total cpu time :  1530.9 secs   av.it.:   9.7
      thresh= 7.890E-07 alpha_mix =  0.700 |ddv_scf|^2 =  3.549E-12

      iter #   7 total cpu time :  1533.0 secs   av.it.:   8.5
      thresh= 1.884E-07 alpha_mix =  0.700 |ddv_scf|^2 =  1.039E-12

      iter #   8 total cpu time :  1535.3 secs   av.it.:   9.0
      thresh= 1.019E-07 alpha_mix =  0.700 |ddv_scf|^2 =  3.002E-14

      iter #   9 total cpu time :  1537.4 secs   av.it.:   8.9
      thresh= 1.733E-08 alpha_mix =  0.700 |ddv_scf|^2 =  1.295E-16

     End of self-consistent calculation

     Convergence has been achieved 


     Representation #   3 mode #   3

     Self-consistent Calculation

      iter #   1 total cpu time :  1539.2 secs   av.it.:   5.9
      thresh= 1.000E-02 alpha_mix =  0.700 |ddv_scf|^2 =  1.935E-07

      iter #   2 total cpu time :  1541.6 secs   av.it.:  10.5
      thresh= 4.399E-05 alpha_mix =  0.700 |ddv_scf|^2 =  1.045E-08

      iter #   3 total cpu time :  1544.0 secs   av.it.:  10.4
      thresh= 1.022E-05 alpha_mix =  0.700 |ddv_scf|^2 =  1.365E-10

      iter #   4 total cpu time :  1546.5 secs   av.it.:  10.3
      thresh= 1.168E-06 alpha_mix =  0.700 |ddv_scf|^2 =  3.233E-13

      iter #   5 total cpu time :  1549.5 secs   av.it.:  10.5
      thresh= 5.686E-08 alpha_mix =  0.700 |ddv_scf|^2 =  4.922E-15

      iter #   6 total cpu time :  1552.0 secs   av.it.:  10.6
      thresh= 7.016E-09 alpha_mix =  0.700 |ddv_scf|^2 =  4.089E-17

     End of self-consistent calculation

     Convergence has been achieved 


     Representation #   4 mode #   4

     Self-consistent Calculation

      iter #   1 total cpu time :  1553.7 secs   av.it.:   5.6
      thresh= 1.000E-02 alpha_mix =  0.700 |ddv_scf|^2 =  4.320E-08

      iter #   2 total cpu time :  1556.1 secs   av.it.:  10.4
      thresh= 2.078E-05 alpha_mix =  0.700 |ddv_scf|^2 =  1.172E-09

      iter #   3 total cpu time :  1558.5 secs   av.it.:  10.3
      thresh= 3.424E-06 alpha_mix =  0.700 |ddv_scf|^2 =  7.235E-11

      iter #   4 total cpu time :  1561.8 secs   av.it.:  10.4
      thresh= 8.506E-07 alpha_mix =  0.700 |ddv_scf|^2 =  2.626E-13

      iter #   5 total cpu time :  1564.2 secs   av.it.:  10.5
      thresh= 5.124E-08 alpha_mix =  0.700 |ddv_scf|^2 =  5.918E-16

     End of self-consistent calculation

     Convergence has been achieved 

     Not diagonalizing because representation    5 is not done
 
     init_run     :      0.20s CPU      0.72s WALL (       8 calls)
     electrons    :    197.86s CPU    229.18s WALL (       8 calls)

     Called by init_run:
     wfcinit      :      0.00s CPU      0.49s WALL (       8 calls)
     potinit      :      0.01s CPU      0.02s WALL (       8 calls)
     hinit0       :      0.07s CPU      0.07s WALL (       8 calls)

     Called by electrons:
     c_bands      :    197.86s CPU    229.18s WALL (       8 calls)
     v_of_rho     :      0.01s CPU      0.01s WALL (       9 calls)

     Called by c_bands:
     init_us_2    :      9.79s CPU     10.31s WALL (  133451 calls)
     init_us_2:cp :      9.47s CPU     10.03s WALL (  133451 calls)
     cegterg      :    108.88s CPU    111.39s WALL (    4438 calls)

     Called by *egterg:
     cdiaghg      :     52.37s CPU     53.58s WALL (   61366 calls)
     h_psi        :    786.66s CPU    824.64s WALL ( 1298222 calls)
     g_psi        :      0.37s CPU      0.38s WALL (   56928 calls)

     Called by h_psi:
     h_psi:calbec :     55.61s CPU     58.30s WALL ( 1298222 calls)
     vloc_psi     :    683.09s CPU    716.07s WALL ( 1298222 calls)
     add_vuspsi   :     36.61s CPU     38.77s WALL ( 1298222 calls)

     General routines
     calbec       :     95.13s CPU    100.56s WALL ( 2605250 calls)
     fft          :      0.37s CPU      0.41s WALL (    2331 calls)
     ffts         :      4.57s CPU      4.64s WALL (   13422 calls)
     fftw         :    773.43s CPU    809.84s WALL (11052382 calls)
     davcio       :      5.68s CPU     62.12s WALL (  566908 calls)
 
     Parallel routines
 
     PHONON       :  21m37.26s CPU  26m 4.68s WALL

     INITIALIZATION: 
     phq_setup    :      0.02s CPU      0.11s WALL (       9 calls)
     phq_init     :      2.69s CPU      5.56s WALL (       9 calls)
 
     phq_init     :      2.69s CPU      5.56s WALL (       9 calls)
     set_drhoc    :      0.42s CPU      0.43s WALL (      27 calls)
     init_vloc    :      0.02s CPU      0.02s WALL (       9 calls)
     init_us_1    :      0.02s CPU      0.02s WALL (       9 calls)
     init_us_2    :      9.79s CPU     10.31s WALL (  133451 calls)
 
     DYNAMICAL MATRIX:
     dynmat0      :      1.78s CPU      4.60s WALL (       9 calls)
     phqscf       :   1075.86s CPU   1276.82s WALL (       9 calls)
     dynmatrix    :      0.22s CPU      3.82s WALL (       9 calls)
 
     phqscf       :   1075.86s CPU   1276.82s WALL (       9 calls)
     solve_linter :   1072.43s CPU   1248.95s WALL (      40 calls)
     drhodv       :      3.39s CPU      3.68s WALL (      40 calls)
 
     dynmat0      :      1.78s CPU      4.60s WALL (       9 calls)
     dynmat_us    :      1.47s CPU      1.53s WALL (       9 calls)
     d2ionq       :      0.00s CPU      0.01s WALL (       9 calls)
     dynmatcc     :      0.29s CPU      0.30s WALL (       9 calls)
 
     dynmat_us    :      1.47s CPU      1.53s WALL (       9 calls)
 
     phqscf       :   1075.86s CPU   1276.82s WALL (       9 calls)
     solve_linter :   1072.43s CPU   1248.95s WALL (      40 calls)
 
     solve_linter :   1072.43s CPU   1248.95s WALL (      40 calls)
     dvqpsi_us    :     14.88s CPU     15.45s WALL (   13182 calls)
     sth_kernel   :   1029.81s CPU   1102.05s WALL (     322 calls)
     apply_dpot_b :     60.60s CPU     63.87s WALL (   95403 calls)
     ortho        :      3.58s CPU      3.77s WALL (  108585 calls)
     cgsolve      :    849.29s CPU    891.44s WALL (  108585 calls)
     incdrhoscf   :    100.94s CPU    104.52s WALL (  108501 calls)
     dv_of_drho   :      0.17s CPU      0.17s WALL (     398 calls)
     mix_pot      :      2.63s CPU     47.31s WALL (     322 calls)
     psymdvscf    :      5.21s CPU      5.31s WALL (     317 calls)
 
     dvqpsi_us    :     14.88s CPU     15.45s WALL (   13182 calls)
     dvqpsi_us_on :      1.97s CPU      2.06s WALL (   13182 calls)
 
     cgsolve      :    849.29s CPU    891.44s WALL (  108585 calls)
     ch_psi       :    828.54s CPU    869.35s WALL ( 1232418 calls)
 
     ch_psi       :    828.54s CPU    869.35s WALL ( 1232418 calls)
     h_psi        :    786.66s CPU    824.64s WALL ( 1298222 calls)
     last         :     72.78s CPU     76.43s WALL ( 1232418 calls)
 
     h_psi        :    786.66s CPU    824.64s WALL ( 1298222 calls)
     add_vuspsi   :     36.61s CPU     38.77s WALL ( 1298222 calls)
 
     incdrhoscf   :    100.94s CPU    104.52s WALL (  108501 calls)
 
 
      General routines
     calbec       :     95.13s CPU    100.56s WALL ( 2605250 calls)
     fft          :      0.37s CPU      0.41s WALL (    2331 calls)
     ffts         :      4.57s CPU      4.64s WALL (   13422 calls)
     fftw         :    773.43s CPU    809.84s WALL (11052382 calls)
     davcio       :      5.68s CPU     62.12s WALL (  566908 calls)
     write_rec    :      1.19s CPU     85.82s WALL (     362 calls)
 
 
     PHONON       :  21m37.26s CPU  26m 4.68s WALL

 
   This run was terminated on:  19:13:44  13May2022            

=------------------------------------------------------------------------------=
   JOB DONE.
=------------------------------------------------------------------------------=
real 1568.78
user 27668.56
sys 1063.85
