Module for gcc 10.2:
(GNU C/C++/FORTRAN compilers v10.2.0) - loaded.
Module for OpenMPI 4.1.0-gcc10.2-infiniband loaded.

     Program PWSCF v.7.0 starts on 12Feb2022 at 11:49:43 

     This program is part of the open-source Quantum ESPRESSO suite
     for quantum simulation of materials; please cite
         "P. Giannozzi et al., J. Phys.:Condens. Matter 21 395502 (2009);
         "P. Giannozzi et al., J. Phys.:Condens. Matter 29 465901 (2017);
         "P. Giannozzi et al., J. Chem. Phys. 152 154105 (2020);
          URL http://www.quantum-espresso.org", 
     in publications or presentations arising from this work. More details at
     http://www.quantum-espresso.org/quote

     Parallel version (MPI), running on     1 processors

     MPI processes distributed on     1 nodes
     50924 MiB available memory on the printing compute node when the environment starts

     Reading input from in_files/kp_6.scf

     Current dimensions of program PWSCF are:
     Max number of different atomic species (ntypx) = 10
     Max number of k-points (npk) =  40000
     Max angular momentum in pseudopotentials (lmaxx) =  4

     Subspace diagonalization in iterative solution of the eigenvalue problem:
     a serial algorithm will be used


     G-vector sticks info
     --------------------
     sticks:   dense  smooth     PW     G-vecs:    dense   smooth      PW
     Sum         847     847    253                16361    16361    2733

     Using Slab Decomposition



     bravais-lattice index     =            2
     lattice parameter (alat)  =      10.2000  a.u.
     unit-cell volume          =     265.3020 (a.u.)^3
     number of atoms/cell      =            2
     number of atomic types    =            1
     number of electrons       =         8.00
     number of Kohn-Sham states=            4
     kinetic-energy cutoff     =      59.0000  Ry
     charge density cutoff     =     236.0000  Ry
     scf convergence threshold =      1.0E-12
     mixing beta               =       0.7000
     number of iterations used =            8  plain     mixing
     Exchange-correlation= PBE
                           (   1   4   3   4   0   0   0)

     celldm(1)=  10.200000  celldm(2)=   0.000000  celldm(3)=   0.000000
     celldm(4)=   0.000000  celldm(5)=   0.000000  celldm(6)=   0.000000

     crystal axes: (cart. coord. in units of alat)
               a(1) = (  -0.500000   0.000000   0.500000 )  
               a(2) = (   0.000000   0.500000   0.500000 )  
               a(3) = (  -0.500000   0.500000   0.000000 )  

     reciprocal axes: (cart. coord. in units 2 pi/alat)
               b(1) = ( -1.000000 -1.000000  1.000000 )  
               b(2) = (  1.000000  1.000000  1.000000 )  
               b(3) = ( -1.000000  1.000000 -1.000000 )  


     PseudoPot. # 1 for Si read from file:
     ./pseudos/Si_pbe_v0.4.1.nc.sr.upf
     MD5 check sum: 02fab3f35e82123ef5bf1cb05d5b1a5e
     Pseudo is Norm-conserving + core correction, Zval =  4.0
     Generated using ONCVPSP code by D. R. Hamann
     Using radial grid of 1510 points,  6 beta functions with: 
                l(1) =   0
                l(2) =   0
                l(3) =   1
                l(4) =   1
                l(5) =   2
                l(6) =   2

     atomic species   valence    mass     pseudopotential
        Si             4.00    28.08600     Si( 1.00)

     48 Sym. Ops., with inversion, found (24 have fractional translation)



   Cartesian axes

     site n.     atom                  positions (alat units)
         1           Si  tau(   1) = (   0.0000000   0.0000000   0.0000000  )
         2           Si  tau(   2) = (   0.2500000   0.2500000   0.2500000  )

     number of k points=    16
                       cart. coord. in units 2pi/alat
        k(    1) = (   0.0000000   0.0000000   0.0000000), wk =   0.0092593
        k(    2) = (  -0.1666667   0.1666667  -0.1666667), wk =   0.0740741
        k(    3) = (  -0.3333333   0.3333333  -0.3333333), wk =   0.0740741
        k(    4) = (   0.5000000  -0.5000000   0.5000000), wk =   0.0370370
        k(    5) = (   0.0000000   0.3333333   0.0000000), wk =   0.0555556
        k(    6) = (  -0.1666667   0.5000000  -0.1666667), wk =   0.2222222
        k(    7) = (   0.6666667  -0.3333333   0.6666667), wk =   0.2222222
        k(    8) = (   0.5000000  -0.1666667   0.5000000), wk =   0.2222222
        k(    9) = (   0.3333333   0.0000000   0.3333333), wk =   0.1111111
        k(   10) = (   0.0000000   0.6666667   0.0000000), wk =   0.0555556
        k(   11) = (   0.8333333  -0.1666667   0.8333333), wk =   0.2222222
        k(   12) = (   0.6666667  -0.0000000   0.6666667), wk =   0.1111111
        k(   13) = (   0.0000000  -1.0000000   0.0000000), wk =   0.0277778
        k(   14) = (   0.6666667  -0.3333333   1.0000000), wk =   0.2222222
        k(   15) = (   0.5000000  -0.1666667   0.8333333), wk =   0.2222222
        k(   16) = (  -0.3333333  -1.0000000   0.0000000), wk =   0.1111111

     Dense  grid:    16361 G-vectors     FFT dimensions: (  36,  36,  36)

     Estimated max dynamical RAM per process >      14.96 MB

     Initial potential from superposition of free atoms

     starting charge       7.9988, renormalised to       8.0000
     Starting wfcs are    8 randomized atomic wfcs

     total cpu time spent up to now is        0.6 secs

     Self-consistent Calculation

     iteration #  1     ecut=    59.00 Ry     beta= 0.70
     Davidson diagonalization with overlap
     ethr =  1.00E-02,  avg # of iterations =  2.0

     Threshold (ethr) on eigenvalues was too large:
     Diagonalizing with lowered threshold

     Davidson diagonalization with overlap
     ethr =  5.96E-04,  avg # of iterations =  2.0

     total cpu time spent up to now is        1.2 secs

     total energy              =     -16.91972594 Ry
     estimated scf accuracy    <       0.05628777 Ry

     iteration #  2     ecut=    59.00 Ry     beta= 0.70
     Davidson diagonalization with overlap
     ethr =  7.04E-04,  avg # of iterations =  1.0

     total cpu time spent up to now is        1.5 secs

     total energy              =     -16.92144649 Ry
     estimated scf accuracy    <       0.00296471 Ry

     iteration #  3     ecut=    59.00 Ry     beta= 0.70
     Davidson diagonalization with overlap
     ethr =  3.71E-05,  avg # of iterations =  2.3

     total cpu time spent up to now is        1.8 secs

     total energy              =     -16.92208443 Ry
     estimated scf accuracy    <       0.00006544 Ry

     iteration #  4     ecut=    59.00 Ry     beta= 0.70
     Davidson diagonalization with overlap
     ethr =  8.18E-07,  avg # of iterations =  4.5

     total cpu time spent up to now is        2.2 secs

     total energy              =     -16.92215381 Ry
     estimated scf accuracy    <       0.00000037 Ry

     iteration #  5     ecut=    59.00 Ry     beta= 0.70
     Davidson diagonalization with overlap
     ethr =  4.60E-09,  avg # of iterations =  6.6

     total cpu time spent up to now is        2.7 secs

     total energy              =     -16.92215573 Ry
     estimated scf accuracy    <       0.00000005 Ry

     iteration #  6     ecut=    59.00 Ry     beta= 0.70
     Davidson diagonalization with overlap
     ethr =  5.77E-10,  avg # of iterations =  2.2

     total cpu time spent up to now is        3.0 secs

     total energy              =     -16.92215574 Ry
     estimated scf accuracy    <          3.3E-09 Ry

     iteration #  7     ecut=    59.00 Ry     beta= 0.70
     Davidson diagonalization with overlap
     ethr =  4.12E-11,  avg # of iterations =  3.6

     total cpu time spent up to now is        3.4 secs

     total energy              =     -16.92215574 Ry
     estimated scf accuracy    <          4.1E-10 Ry

     iteration #  8     ecut=    59.00 Ry     beta= 0.70
     Davidson diagonalization with overlap
     ethr =  5.17E-12,  avg # of iterations =  2.9

     total cpu time spent up to now is        3.7 secs

     total energy              =     -16.92215574 Ry
     estimated scf accuracy    <          5.4E-12 Ry

     iteration #  9     ecut=    59.00 Ry     beta= 0.70
     Davidson diagonalization with overlap
     ethr =  1.00E-13,  avg # of iterations =  4.9

     total cpu time spent up to now is        4.1 secs

     End of self-consistent calculation

          k = 0.0000 0.0000 0.0000 (  2085 PWs)   bands (ev):

    -5.6615   6.4313   6.4313   6.4313

          k =-0.1667 0.1667-0.1667 (  2022 PWs)   bands (ev):

    -5.2947   4.0303   5.9712   5.9712

          k =-0.3333 0.3333-0.3333 (  2030 PWs)   bands (ev):

    -4.2616   1.0357   5.4134   5.4134

          k = 0.5000-0.5000 0.5000 (  2036 PWs)   bands (ev):

    -3.2843  -0.6313   5.2131   5.2131

          k = 0.0000 0.3333 0.0000 (  2017 PWs)   bands (ev):

    -5.1699   4.4029   5.2114   5.2114

          k =-0.1667 0.5000-0.1667 (  2020 PWs)   bands (ev):

    -4.3414   1.9608   4.4078   4.6500

          k = 0.6667-0.3333 0.6667 (  2028 PWs)   bands (ev):

    -3.1252  -0.2506   3.6122   4.6215

          k = 0.5000-0.1667 0.5000 (  2028 PWs)   bands (ev):

    -3.5192   0.3614   3.3324   5.1108

          k = 0.3333 0.0000 0.3333 (  2027 PWs)   bands (ev):

    -4.6969   2.6917   3.9675   5.8580

          k = 0.0000 0.6667 0.0000 (  2044 PWs)   bands (ev):

    -3.7275   1.3978   3.9668   3.9668

          k = 0.8333-0.1667 0.8333 (  2040 PWs)   bands (ev):

    -2.5431  -0.1806   2.7243   3.8288

          k = 0.6667-0.0000 0.6667 (  2015 PWs)   bands (ev):

    -2.3388  -0.3936   1.9263   4.2796

          k = 0.0000-1.0000 0.0000 (  2044 PWs)   bands (ev):

    -1.4516  -1.4516   3.5257   3.5257

          k = 0.6667-0.3333 1.0000 (  2036 PWs)   bands (ev):

    -3.3343   0.7513   2.7897   4.0888

          k = 0.5000-0.1667 0.8333 (  2030 PWs)   bands (ev):

    -2.3280  -0.4725   2.3450   3.6106

          k =-0.3333-1.0000 0.0000 (  2030 PWs)   bands (ev):

    -1.3258  -1.3258   2.7096   2.7096

     highest occupied level (ev):     6.4313

!    total energy              =     -16.92215574 Ry
     estimated scf accuracy    <          4.2E-13 Ry

     The total energy is the sum of the following terms:
     one-electron contribution =       5.10013312 Ry
     hartree contribution      =       1.08384472 Ry
     xc contribution           =      -6.20637500 Ry
     ewald contribution        =     -16.89975857 Ry

     convergence has been achieved in   9 iterations

     Forces acting on atoms (cartesian axes, Ry/au):

     atom    1 type  1   force =    -0.00000000   -0.00000000   -0.00000000
     atom    2 type  1   force =     0.00000000   -0.00000000    0.00000000

     Total force =     0.000000     Total SCF correction =     0.000000


     Computing stress (Cartesian axis) and pressure

          total   stress  (Ry/bohr**3)                   (kbar)     P=       38.68
   0.00026292   0.00000000   0.00000000           38.68        0.00        0.00
   0.00000000   0.00026292  -0.00000000            0.00       38.68       -0.00
   0.00000000  -0.00000000   0.00026292            0.00       -0.00       38.68


     Writing all to output data dir /fastscratch/tsievers/QE_TMP_DIR/silicon_bench_singlecore_kpoints_maxecut_6.save/

     init_run     :      0.57s CPU      0.58s WALL (       1 calls)
     electrons    :      3.47s CPU      3.51s WALL (       1 calls)
     forces       :      0.11s CPU      0.11s WALL (       1 calls)
     stress       :      0.37s CPU      0.38s WALL (       1 calls)

     Called by init_run:
     wfcinit      :      0.29s CPU      0.29s WALL (       1 calls)
     potinit      :      0.03s CPU      0.04s WALL (       1 calls)
     hinit0       :      0.24s CPU      0.25s WALL (       1 calls)

     Called by electrons:
     c_bands      :      2.78s CPU      2.79s WALL (      10 calls)
     sum_band     :      0.45s CPU      0.45s WALL (      10 calls)
     v_of_rho     :      0.25s CPU      0.26s WALL (      10 calls)
     mix_rho      :      0.01s CPU      0.02s WALL (      10 calls)

     Called by c_bands:
     init_us_2    :      0.27s CPU      0.27s WALL (     368 calls)
     init_us_2:cp :      0.27s CPU      0.27s WALL (     368 calls)
     cegterg      :      2.28s CPU      2.29s WALL (     160 calls)

     Called by *egterg:
     cdiaghg      :      0.02s CPU      0.02s WALL (     655 calls)
     h_psi        :      2.26s CPU      2.26s WALL (     687 calls)
     g_psi        :      0.02s CPU      0.02s WALL (     511 calls)

     Called by h_psi:
     h_psi:calbec :      0.24s CPU      0.24s WALL (     687 calls)
     vloc_psi     :      1.76s CPU      1.77s WALL (     687 calls)
     add_vuspsi   :      0.25s CPU      0.25s WALL (     687 calls)

     General routines
     calbec       :      0.27s CPU      0.27s WALL (     767 calls)
     fft          :      0.21s CPU      0.22s WALL (     125 calls)
     ffts         :      0.01s CPU      0.01s WALL (      10 calls)
     fftw         :      1.71s CPU      1.72s WALL (    5226 calls)

     Parallel routines

     PWSCF        :      4.58s CPU      4.72s WALL


   This run was terminated on:  11:49:47  12Feb2022            

=------------------------------------------------------------------------------=
   JOB DONE.
=------------------------------------------------------------------------------=
