
     Program PHONON v.7.0 starts on  7Jun2022 at 19: 9:55 

     This program is part of the open-source Quantum ESPRESSO suite
     for quantum simulation of materials; please cite
         "P. Giannozzi et al., J. Phys.:Condens. Matter 21 395502 (2009);
         "P. Giannozzi et al., J. Phys.:Condens. Matter 29 465901 (2017);
         "P. Giannozzi et al., J. Chem. Phys. 152 154105 (2020);
          URL http://www.quantum-espresso.org", 
     in publications or presentations arising from this work. More details at
     http://www.quantum-espresso.org/quote

     Parallel version (MPI), running on   144 processors

     MPI processes distributed on     8 nodes
     path-images division:  nimage    =       8
     R & G space division:  proc/nbgrp/npool/nimage =      18
     48034 MiB available memory on the printing compute node when the environment starts
 
     Reading input from /fastscratch/tsievers/TaS2_24_ph_benchmark_images/TaS2_24_ph_bench_nimages_8_n_procs_144_0.ph

     Reading xml data from directory:

     /fastscratch/tsievers/QE_TMP_DIR/TaS2_24_ph_bench_nimages_8_n_procs_144_0.save/

     IMPORTANT: XC functional enforced from input :
     Exchange-correlation= PBE
                           (   1   4   3   4   0   0   0)
     Any further DFT definition will be discarded
     Please, verify this is what you really want

 
     Parallelization info
     --------------------
     sticks:   dense  smooth     PW     G-vecs:    dense   smooth      PW
     Min          60      31      9                 7329     2593     419
     Max          62      32     10                 7342     2605     434
     Sum        1099     559    163               132031    46753    7647
 
     Using Slab Decomposition
 
 ----2D----2D----2D----2D----2D----2D----2D----2D----2D----2D----2D----2D
  The code is running with the 2D cutoff
  Please refer to:
  Sohier, T., Calandra, M., & Mauri, F. (2017), 
  Density functional perturbation theory for gated two-dimensional heterostructu
 res:
  Theoretical developments and application to flexural phonons in graphene.
  Physical Review B, 96(7), 75448. https://doi.org/10.1103/PhysRevB.96.075448
 ----2D----2D----2D----2D----2D----2D----2D----2D----2D----2D----2D----2D
     Reading collected, re-writing distributed wavefunctions


     Dynamical matrices for (12,12, 1)  uniform grid of q-points
     (  19 q-points):
       N         xq(1)         xq(2)         xq(3) 
       1   0.000000000   0.000000000   0.000000000
       2   0.000000000   0.096225045   0.000000000
       3   0.000000000   0.192450090   0.000000000
       4   0.000000000   0.288675135   0.000000000
       5   0.000000000   0.384900179   0.000000000
       6   0.000000000   0.481125224   0.000000000
       7   0.000000000  -0.577350269   0.000000000
       8   0.083333333   0.144337567   0.000000000
       9   0.083333333   0.240562612   0.000000000
      10   0.083333333   0.336787657   0.000000000
      11   0.083333333   0.433012702   0.000000000
      12   0.083333333   0.529237747   0.000000000
      13   0.166666667   0.288675135   0.000000000
      14   0.166666667   0.384900179   0.000000000
      15   0.166666667   0.481125224   0.000000000
      16   0.166666667   0.577350269   0.000000000
      17   0.250000000   0.433012702   0.000000000
      18   0.250000000   0.529237747   0.000000000
      19   0.333333333   0.577350269   0.000000000

     Saving dvscf to file. Distribute only q points, not irreducible represetations.

      Image parallelization. There are  8 images and     8 representations
      The estimated total work is   870 self-consistent (scf) runs
      I am image number     0 and my work is about  100 scf runs. I calculate: 
      q point number     1, representations:
       0 1 2 3 4 5 6
      q point number     2, representations:
       0 1 2 3 4 5 6 7 8 9
      q point number     3, representations:
       0 1 2 3 4 5 6 7 8 9
      q point number     4, representations:
       0 1 2 3 4 5 6 7 8 9

     Calculation of q =    0.0000000   0.0000000   0.0000000

     TaS2                                                                       

     bravais-lattice index     =            4
     lattice parameter (alat)  =       6.3117  a.u.
     unit-cell volume          =     977.9382 (a.u.)^3
     number of atoms/cell      =            3
     number of atomic types    =            2
     kinetic-energy cut-off    =      50.0000  Ry
     charge density cut-off    =     400.0000  Ry
     convergence threshold     =      1.0E-21
     beta                      =       0.7000
     number of iterations used =            4
     Exchange-correlation= PBE
                           (   1   4   3   4   0   0   0)


     celldm(1)=    6.31169  celldm(2)=    0.00000  celldm(3)=    4.49102
     celldm(4)=    0.00000  celldm(5)=    0.00000  celldm(6)=    0.00000

     crystal axes: (cart. coord. in units of alat)
               a(1) = (  1.0000  0.0000  0.0000 )  
               a(2) = ( -0.5000  0.8660  0.0000 )  
               a(3) = (  0.0000  0.0000  4.4910 )  

     reciprocal axes: (cart. coord. in units 2 pi/alat)
               b(1) = (  1.0000  0.5774  0.0000 )  
               b(2) = (  0.0000  1.1547  0.0000 )  
               b(3) = (  0.0000  0.0000  0.2227 )  


     Atoms inside the unit cell: 

     Cartesian axes

     site n.  atom      mass           positions (alat units)
        1     S   32.0600   tau(    1) = (   -0.00000    0.57735    0.46790  )
        2     Ta 180.9500   tau(    2) = (    0.00000    0.00000    0.00000  )
        3     S   32.0600   tau(    3) = (   -0.00000    0.57735   -0.46790  )

     Computing dynamical matrix for 
                    q = (   0.0000000   0.0000000   0.0000000 )
 
     13 Sym.Ops. (with q -> -q+G )


     G cutoff =  403.6370  (   7330 G-vectors)     FFT grid: ( 45, 45,192)
     G cutoff =  201.8185  (   2599 G-vectors)  smooth grid: ( 30, 30,128)

     number of k points=    61  Marzari-Vanderbilt smearing, width (Ry)=  0.0060

     PseudoPot. # 1 for Ta read from file:
     /fastscratch/tsievers/TaS2_24_ph_benchmark_images//pseudos/Ta.pbe-hgh.UPF
     MD5 check sum: 129c51a9a4223465c43ca8d238d17e53
     Pseudo is Norm-conserving, Zval =  5.0
     Generated in analytical, separable form
     Using radial grid of 1273 points,  6 beta functions with: 
                l(1) =   0
                l(2) =   0
                l(3) =   1
                l(4) =   1
                l(5) =   2
                l(6) =   2

     PseudoPot. # 2 for S  read from file:
     /fastscratch/tsievers/TaS2_24_ph_benchmark_images//pseudos/S.pbe-hgh.UPF
     MD5 check sum: 3a21e384b95a7cc84d045d3bcc0c4ba8
     Pseudo is Norm-conserving, Zval =  6.0
     Generated in analytical, separable form
     Using radial grid of 1151 points,  3 beta functions with: 
                l(1) =   0
                l(2) =   0
                l(3) =   1

     Mode symmetry, D_3h (-62m) point group:


     Atomic displacements:
     There are    6 irreducible representations

     Representation     1      1 modes -  To be done

     Representation     2      2 modes -  To be done

     Representation     3      2 modes -  To be done

     Representation     4      1 modes -  To be done

     Representation     5      1 modes -  To be done

     Representation     6      2 modes -  To be done



     Alpha used in Ewald sum =   2.8000
     PHONON       :      6.99s CPU     13.37s WALL



     Representation #   1 mode #   1

     Self-consistent Calculation
 
     Pert. #  1: Fermi energy shift (Ry) =    -2.3654E+00    -3.3881E-20

      iter #   1 total cpu time :    15.3 secs   av.it.:   9.1
      thresh= 1.000E-02 alpha_mix =  0.700 |ddv_scf|^2 =  3.675E-05
 
     Pert. #  1: Fermi energy shift (Ry) =     5.2009E+00     4.7646E-22

      iter #   2 total cpu time :    18.1 secs   av.it.:  15.1
      thresh= 6.062E-04 alpha_mix =  0.700 |ddv_scf|^2 =  2.117E-04
 
     Pert. #  1: Fermi energy shift (Ry) =    -2.3846E-01    -1.9058E-21

      iter #   3 total cpu time :    25.1 secs   av.it.:  13.3
      thresh= 1.455E-03 alpha_mix =  0.700 |ddv_scf|^2 =  8.227E-07
 
     Pert. #  1: Fermi energy shift (Ry) =     3.6102E-02     5.2940E-23

      iter #   4 total cpu time :    27.6 secs   av.it.:  14.0
      thresh= 9.070E-05 alpha_mix =  0.700 |ddv_scf|^2 =  4.243E-08
 
     Pert. #  1: Fermi energy shift (Ry) =    -2.2915E-02    -6.6174E-24

      iter #   5 total cpu time :    30.1 secs   av.it.:  13.7
      thresh= 2.060E-05 alpha_mix =  0.700 |ddv_scf|^2 =  3.502E-11
 
     Pert. #  1: Fermi energy shift (Ry) =    -2.4895E-02     3.1019E-25

      iter #   6 total cpu time :    34.1 secs   av.it.:  14.6
      thresh= 5.918E-07 alpha_mix =  0.700 |ddv_scf|^2 =  3.489E-13
 
     Pert. #  1: Fermi energy shift (Ry) =    -2.5270E-02     7.7548E-26

      iter #   7 total cpu time :    44.7 secs   av.it.:  12.8
      thresh= 5.907E-08 alpha_mix =  0.700 |ddv_scf|^2 =  9.485E-15
 
     Pert. #  1: Fermi energy shift (Ry) =    -2.5355E-02    -4.8468E-27

      iter #   8 total cpu time :    51.4 secs   av.it.:  15.1
      thresh= 9.739E-09 alpha_mix =  0.700 |ddv_scf|^2 =  2.924E-16
 
     Pert. #  1: Fermi energy shift (Ry) =    -2.5344E-02     3.6351E-27

      iter #   9 total cpu time :    54.6 secs   av.it.:  15.0
      thresh= 1.710E-09 alpha_mix =  0.700 |ddv_scf|^2 =  2.247E-16
 
     Pert. #  1: Fermi energy shift (Ry) =    -2.5338E-02     4.8468E-27

      iter #  10 total cpu time :    59.6 secs   av.it.:  13.9
      thresh= 1.499E-09 alpha_mix =  0.700 |ddv_scf|^2 =  6.165E-18
 
     Pert. #  1: Fermi energy shift (Ry) =    -2.5340E-02     4.4429E-27

      iter #  11 total cpu time :    62.9 secs   av.it.:  15.1
      thresh= 2.483E-10 alpha_mix =  0.700 |ddv_scf|^2 =  3.200E-21
 
     Pert. #  1: Fermi energy shift (Ry) =    -2.5340E-02     4.4429E-27

      iter #  12 total cpu time :    67.3 secs   av.it.:  15.0
      thresh= 5.657E-12 alpha_mix =  0.700 |ddv_scf|^2 =  1.667E-22

     End of self-consistent calculation

     Convergence has been achieved 


     Representation #   2 modes #   2   3

     Self-consistent Calculation
 
     Pert. #  1: Fermi energy shift (Ry) =     2.6021E-18     1.8808E-36
     Pert. #  2: Fermi energy shift (Ry) =     2.8912E-19    -3.1347E-37

      iter #   1 total cpu time :    70.6 secs   av.it.:   6.9
      thresh= 1.000E-02 alpha_mix =  0.700 |ddv_scf|^2 =  1.736E-09
 
     Pert. #  1: Fermi energy shift (Ry) =     2.3130E-18    -7.3468E-40
     Pert. #  2: Fermi energy shift (Ry) =     2.6021E-18    -1.1020E-39

      iter #   2 total cpu time :    79.8 secs   av.it.:  17.1
      thresh= 4.166E-06 alpha_mix =  0.700 |ddv_scf|^2 =  1.189E-10
 
     Pert. #  1: Fermi energy shift (Ry) =     2.0238E-18     6.1224E-40
     Pert. #  2: Fermi energy shift (Ry) =     0.0000E+00     4.2857E-40

      iter #   3 total cpu time :    93.1 secs   av.it.:  16.6
      thresh= 1.090E-06 alpha_mix =  0.700 |ddv_scf|^2 =  1.226E-11
 
     Pert. #  1: Fermi energy shift (Ry) =     2.3130E-18    -9.1835E-41
     Pert. #  2: Fermi energy shift (Ry) =     1.4456E-18     6.1224E-41

      iter #   4 total cpu time :    99.7 secs   av.it.:  16.7
      thresh= 3.501E-07 alpha_mix =  0.700 |ddv_scf|^2 =  2.266E-13
 
     Pert. #  1: Fermi energy shift (Ry) =     2.3130E-18     3.4438E-41
     Pert. #  2: Fermi energy shift (Ry) =    -2.8912E-19     1.9132E-41

      iter #   5 total cpu time :   105.6 secs   av.it.:  16.9
      thresh= 4.760E-08 alpha_mix =  0.700 |ddv_scf|^2 =  3.638E-15
 
     Pert. #  1: Fermi energy shift (Ry) =     3.7586E-18    -9.5662E-43
     Pert. #  2: Fermi energy shift (Ry) =     2.8912E-19    -1.0762E-42

      iter #   6 total cpu time :   113.0 secs   av.it.:  17.1
      thresh= 6.032E-09 alpha_mix =  0.700 |ddv_scf|^2 =  2.452E-17
 
     Pert. #  1: Fermi energy shift (Ry) =     2.3130E-18    -5.4184E-44
     Pert. #  2: Fermi energy shift (Ry) =     5.7824E-19     1.8684E-45

      iter #   7 total cpu time :   119.9 secs   av.it.:  17.3
      thresh= 4.951E-10 alpha_mix =  0.700 |ddv_scf|^2 =  5.306E-19
 
     Pert. #  1: Fermi energy shift (Ry) =     2.3130E-18     4.4842E-44
     Pert. #  2: Fermi energy shift (Ry) =     2.0238E-18     1.0463E-43

      iter #   8 total cpu time :   125.4 secs   av.it.:  16.4
      thresh= 7.285E-11 alpha_mix =  0.700 |ddv_scf|^2 =  8.869E-21
 
     Pert. #  1: Fermi energy shift (Ry) =     8.6736E-19     4.4842E-44
     Pert. #  2: Fermi energy shift (Ry) =    -2.8912E-19     5.9789E-44

      iter #   9 total cpu time :   132.6 secs   av.it.:  16.3
      thresh= 9.418E-12 alpha_mix =  0.700 |ddv_scf|^2 =  4.364E-23

     End of self-consistent calculation

     Convergence has been achieved 


     Representation #   3 modes #   4   5

     Self-consistent Calculation
 
     Pert. #  1: Fermi energy shift (Ry) =    -8.6736E-19    -2.5077E-37
     Pert. #  2: Fermi energy shift (Ry) =     5.0596E-19    -1.2539E-37

      iter #   1 total cpu time :   136.6 secs   av.it.:   7.8
      thresh= 1.000E-02 alpha_mix =  0.700 |ddv_scf|^2 =  1.530E-08
 
     Pert. #  1: Fermi energy shift (Ry) =    -1.4456E-18     1.2245E-40
     Pert. #  2: Fermi energy shift (Ry) =     0.0000E+00     8.5713E-40

      iter #   2 total cpu time :   142.4 secs   av.it.:  17.3
      thresh= 1.237E-05 alpha_mix =  0.700 |ddv_scf|^2 =  1.612E-09
 
     Pert. #  1: Fermi energy shift (Ry) =    -8.6736E-19    -6.1224E-41
     Pert. #  2: Fermi energy shift (Ry) =    -2.8912E-19    -4.2857E-40

      iter #   3 total cpu time :   153.6 secs   av.it.:  17.0
      thresh= 4.015E-06 alpha_mix =  0.700 |ddv_scf|^2 =  5.840E-11
 
     Pert. #  1: Fermi energy shift (Ry) =    -8.6736E-19     3.0612E-41
     Pert. #  2: Fermi energy shift (Ry) =    -5.7824E-19     1.5306E-41

      iter #   4 total cpu time :   158.9 secs   av.it.:  15.4
      thresh= 7.642E-07 alpha_mix =  0.700 |ddv_scf|^2 =  2.109E-14
 
     Pert. #  1: Fermi energy shift (Ry) =    -1.4456E-18    -4.7831E-43
     Pert. #  2: Fermi energy shift (Ry) =    -1.3010E-18     0.0000E+00

      iter #   5 total cpu time :   164.6 secs   av.it.:  16.6
      thresh= 1.452E-08 alpha_mix =  0.700 |ddv_scf|^2 =  9.088E-16
 
     Pert. #  1: Fermi energy shift (Ry) =    -2.6021E-18     2.9894E-44
     Pert. #  2: Fermi energy shift (Ry) =    -8.6736E-19     2.0926E-43

      iter #   6 total cpu time :   171.5 secs   av.it.:  17.0
      thresh= 3.015E-09 alpha_mix =  0.700 |ddv_scf|^2 =  1.481E-17
 
     Pert. #  1: Fermi energy shift (Ry) =    -8.6736E-19     2.9894E-44
     Pert. #  2: Fermi energy shift (Ry) =    -5.7824E-19     2.2421E-44

      iter #   7 total cpu time :   178.0 secs   av.it.:  17.3
      thresh= 3.848E-10 alpha_mix =  0.700 |ddv_scf|^2 =  1.927E-19
 
     Pert. #  1: Fermi energy shift (Ry) =    -1.7347E-18     2.9894E-44
     Pert. #  2: Fermi energy shift (Ry) =    -1.4456E-19     2.2421E-44

      iter #   8 total cpu time :   186.6 secs   av.it.:  17.3
      thresh= 4.390E-11 alpha_mix =  0.700 |ddv_scf|^2 =  3.089E-21
 
     Pert. #  1: Fermi energy shift (Ry) =    -1.4456E-18     2.9894E-44
     Pert. #  2: Fermi energy shift (Ry) =     8.6736E-19     2.2421E-44

      iter #   9 total cpu time :   192.0 secs   av.it.:  17.5
      thresh= 5.558E-12 alpha_mix =  0.700 |ddv_scf|^2 =  4.303E-23

     End of self-consistent calculation

     Convergence has been achieved 


     Representation #   4 mode #   6

     Self-consistent Calculation
 
     Pert. #  1: Fermi energy shift (Ry) =     0.0000E+00     0.0000E+00

      iter #   1 total cpu time :   195.2 secs   av.it.:   8.6
      thresh= 1.000E-02 alpha_mix =  0.700 |ddv_scf|^2 =  1.561E-04
 
     Pert. #  1: Fermi energy shift (Ry) =     0.0000E+00     0.0000E+00

      iter #   2 total cpu time :   201.9 secs   av.it.:  14.5
      thresh= 1.249E-03 alpha_mix =  0.700 |ddv_scf|^2 =  6.890E-03
 
     Pert. #  1: Fermi energy shift (Ry) =     0.0000E+00     0.0000E+00

      iter #   3 total cpu time :   204.6 secs   av.it.:  11.0
      thresh= 8.301E-03 alpha_mix =  0.700 |ddv_scf|^2 =  1.498E-08
 
     Pert. #  1: Fermi energy shift (Ry) =     0.0000E+00     0.0000E+00

      iter #   4 total cpu time :   211.9 secs   av.it.:  15.5
      thresh= 1.224E-05 alpha_mix =  0.700 |ddv_scf|^2 =  5.033E-08
 
     Pert. #  1: Fermi energy shift (Ry) =     0.0000E+00     0.0000E+00

      iter #   5 total cpu time :   214.3 secs   av.it.:  12.9
      thresh= 2.243E-05 alpha_mix =  0.700 |ddv_scf|^2 =  1.058E-09
 
     Pert. #  1: Fermi energy shift (Ry) =     0.0000E+00     0.0000E+00

      iter #   6 total cpu time :   217.8 secs   av.it.:  12.5
      thresh= 3.253E-06 alpha_mix =  0.700 |ddv_scf|^2 =  1.858E-10
 
     Pert. #  1: Fermi energy shift (Ry) =     0.0000E+00     0.0000E+00

      iter #   7 total cpu time :   220.0 secs   av.it.:  11.8
      thresh= 1.363E-06 alpha_mix =  0.700 |ddv_scf|^2 =  4.004E-13
 
     Pert. #  1: Fermi energy shift (Ry) =     0.0000E+00     0.0000E+00

      iter #   8 total cpu time :   222.9 secs   av.it.:  12.1
      thresh= 6.327E-08 alpha_mix =  0.700 |ddv_scf|^2 =  2.337E-16
 
     Pert. #  1: Fermi energy shift (Ry) =     0.0000E+00     0.0000E+00

      iter #   9 total cpu time :   226.2 secs   av.it.:  15.4
      thresh= 1.529E-09 alpha_mix =  0.700 |ddv_scf|^2 =  7.968E-16
 
     Pert. #  1: Fermi energy shift (Ry) =     0.0000E+00     0.0000E+00

      iter #  10 total cpu time :   228.4 secs   av.it.:  11.3
      thresh= 2.823E-09 alpha_mix =  0.700 |ddv_scf|^2 =  2.125E-16
 
     Pert. #  1: Fermi energy shift (Ry) =     0.0000E+00     0.0000E+00

      iter #  11 total cpu time :   230.6 secs   av.it.:  11.8
      thresh= 1.458E-09 alpha_mix =  0.700 |ddv_scf|^2 =  8.145E-19
 
     Pert. #  1: Fermi energy shift (Ry) =     0.0000E+00     0.0000E+00

      iter #  12 total cpu time :   236.5 secs   av.it.:  11.8
      thresh= 9.025E-11 alpha_mix =  0.700 |ddv_scf|^2 =  1.152E-21
 
     Pert. #  1: Fermi energy shift (Ry) =     0.0000E+00     0.0000E+00

      iter #  13 total cpu time :   246.8 secs   av.it.:  14.1
      thresh= 3.394E-12 alpha_mix =  0.700 |ddv_scf|^2 =  1.403E-21
 
     Pert. #  1: Fermi energy shift (Ry) =     0.0000E+00     0.0000E+00

      iter #  14 total cpu time :   249.2 secs   av.it.:  11.5
      thresh= 3.746E-12 alpha_mix =  0.700 |ddv_scf|^2 =  3.795E-24

     End of self-consistent calculation

     Convergence has been achieved 


     Representation #   5 mode #   7

     Self-consistent Calculation
 
     Pert. #  1: Fermi energy shift (Ry) =     0.0000E+00     0.0000E+00

      iter #   1 total cpu time :   252.0 secs   av.it.:   8.9
      thresh= 1.000E-02 alpha_mix =  0.700 |ddv_scf|^2 =  2.721E-04
 
     Pert. #  1: Fermi energy shift (Ry) =     0.0000E+00     0.0000E+00

      iter #   2 total cpu time :   254.6 secs   av.it.:  14.5
      thresh= 1.649E-03 alpha_mix =  0.700 |ddv_scf|^2 =  1.145E-02
 
     Pert. #  1: Fermi energy shift (Ry) =     0.0000E+00     0.0000E+00

      iter #   3 total cpu time :   256.8 secs   av.it.:  11.2
      thresh= 1.000E-02 alpha_mix =  0.700 |ddv_scf|^2 =  3.720E-06
 
     Pert. #  1: Fermi energy shift (Ry) =     0.0000E+00     0.0000E+00

      iter #   4 total cpu time :   259.2 secs   av.it.:  13.2
      thresh= 1.929E-04 alpha_mix =  0.700 |ddv_scf|^2 =  6.135E-07
 
     Pert. #  1: Fermi energy shift (Ry) =     0.0000E+00     0.0000E+00

      iter #   5 total cpu time :   261.6 secs   av.it.:  12.6
      thresh= 7.833E-05 alpha_mix =  0.700 |ddv_scf|^2 =  2.639E-10
 
     Pert. #  1: Fermi energy shift (Ry) =     0.0000E+00     0.0000E+00

      iter #   6 total cpu time :   264.0 secs   av.it.:  12.4
      thresh= 1.624E-06 alpha_mix =  0.700 |ddv_scf|^2 =  7.640E-12
 
     Pert. #  1: Fermi energy shift (Ry) =     0.0000E+00     0.0000E+00

      iter #   7 total cpu time :   266.5 secs   av.it.:  12.3
      thresh= 2.764E-07 alpha_mix =  0.700 |ddv_scf|^2 =  3.958E-13
 
     Pert. #  1: Fermi energy shift (Ry) =     0.0000E+00     0.0000E+00

      iter #   8 total cpu time :   270.8 secs   av.it.:  12.1
      thresh= 6.292E-08 alpha_mix =  0.700 |ddv_scf|^2 =  4.734E-15
 
     Pert. #  1: Fermi energy shift (Ry) =     0.0000E+00     0.0000E+00

      iter #   9 total cpu time :   283.8 secs   av.it.:  12.6
      thresh= 6.881E-09 alpha_mix =  0.700 |ddv_scf|^2 =  1.256E-16
 
     Pert. #  1: Fermi energy shift (Ry) =     0.0000E+00     0.0000E+00

      iter #  10 total cpu time :   287.0 secs   av.it.:  11.5
      thresh= 1.121E-09 alpha_mix =  0.700 |ddv_scf|^2 =  3.765E-17
 
     Pert. #  1: Fermi energy shift (Ry) =     0.0000E+00     0.0000E+00

      iter #  11 total cpu time :   289.4 secs   av.it.:  12.0
      thresh= 6.136E-10 alpha_mix =  0.700 |ddv_scf|^2 =  4.823E-20
 
     Pert. #  1: Fermi energy shift (Ry) =     0.0000E+00     0.0000E+00

      iter #  12 total cpu time :   292.5 secs   av.it.:  14.2
      thresh= 2.196E-11 alpha_mix =  0.700 |ddv_scf|^2 =  1.178E-19
 
     Pert. #  1: Fermi energy shift (Ry) =     0.0000E+00     0.0000E+00

      iter #  13 total cpu time :   295.3 secs   av.it.:  11.9
      thresh= 3.433E-11 alpha_mix =  0.700 |ddv_scf|^2 =  4.548E-21
 
     Pert. #  1: Fermi energy shift (Ry) =     0.0000E+00     0.0000E+00

      iter #  14 total cpu time :   297.5 secs   av.it.:  12.0
      thresh= 6.744E-12 alpha_mix =  0.700 |ddv_scf|^2 =  8.638E-25

     End of self-consistent calculation

     Convergence has been achieved 


     Representation #   6 modes #   8   9

     Self-consistent Calculation
 
     Pert. #  1: Fermi energy shift (Ry) =     3.4466E-26     3.8265E-42
     Pert. #  2: Fermi energy shift (Ry) =     1.7233E-26     0.0000E+00

      iter #   1 total cpu time :   301.0 secs   av.it.:   7.8
      thresh= 1.000E-02 alpha_mix =  0.700 |ddv_scf|^2 =  1.295E-08
 
     Pert. #  1: Fermi energy shift (Ry) =     0.0000E+00     0.0000E+00
     Pert. #  2: Fermi energy shift (Ry) =    -5.3853E-28    -2.9894E-44

      iter #   2 total cpu time :   308.6 secs   av.it.:  17.3
      thresh= 1.138E-05 alpha_mix =  0.700 |ddv_scf|^2 =  1.152E-09
 
     Pert. #  1: Fermi energy shift (Ry) =     0.0000E+00     4.7831E-43
     Pert. #  2: Fermi energy shift (Ry) =     6.4623E-27    -1.1958E-43

      iter #   3 total cpu time :   322.8 secs   av.it.:  16.9
      thresh= 3.394E-06 alpha_mix =  0.700 |ddv_scf|^2 =  5.407E-11
 
     Pert. #  1: Fermi energy shift (Ry) =     0.0000E+00     2.9894E-44
     Pert. #  2: Fermi energy shift (Ry) =    -4.3082E-27     0.0000E+00

      iter #   4 total cpu time :   328.5 secs   av.it.:  15.4
      thresh= 7.353E-07 alpha_mix =  0.700 |ddv_scf|^2 =  1.480E-14
 
     Pert. #  1: Fermi energy shift (Ry) =     0.0000E+00     1.4947E-44
     Pert. #  2: Fermi energy shift (Ry) =     0.0000E+00     0.0000E+00

      iter #   5 total cpu time :   338.2 secs   av.it.:  16.5
      thresh= 1.216E-08 alpha_mix =  0.700 |ddv_scf|^2 =  6.501E-16
 
     Pert. #  1: Fermi energy shift (Ry) =    -2.1541E-27     1.4947E-44
     Pert. #  2: Fermi energy shift (Ry) =     1.0771E-27     0.0000E+00

      iter #   6 total cpu time :   346.5 secs   av.it.:  16.0
      thresh= 2.550E-09 alpha_mix =  0.700 |ddv_scf|^2 =  1.811E-18
 
     Pert. #  1: Fermi energy shift (Ry) =    -2.1541E-27     1.4947E-44
     Pert. #  2: Fermi energy shift (Ry) =     1.0771E-27     0.0000E+00

      iter #   7 total cpu time :   363.9 secs   av.it.:  17.4
      thresh= 1.346E-10 alpha_mix =  0.700 |ddv_scf|^2 =  7.505E-20
 
     Pert. #  1: Fermi energy shift (Ry) =    -2.1541E-27     1.4947E-44
     Pert. #  2: Fermi energy shift (Ry) =     7.5394E-27     0.0000E+00

      iter #   8 total cpu time :   378.6 secs   av.it.:  17.5
      thresh= 2.739E-11 alpha_mix =  0.700 |ddv_scf|^2 =  2.942E-21
 
     Pert. #  1: Fermi energy shift (Ry) =    -4.3082E-27     1.4947E-44
     Pert. #  2: Fermi energy shift (Ry) =    -2.1541E-27     0.0000E+00

      iter #   9 total cpu time :   384.2 secs   av.it.:  17.4
      thresh= 5.424E-12 alpha_mix =  0.700 |ddv_scf|^2 =  1.487E-22

     End of self-consistent calculation

     Convergence has been achieved 
 
     Number of q in the star =    1
     List of q in the star:
          1   0.000000000   0.000000000   0.000000000

     Diagonalizing the dynamical matrix

     q = (    0.000000000   0.000000000   0.000000000 ) 

 **************************************************************************
     freq (    1) =      -0.667613 [THz] =     -22.269162 [cm-1]
     freq (    2) =      -0.667613 [THz] =     -22.269162 [cm-1]
     freq (    3) =       0.962108 [THz] =      32.092479 [cm-1]
     freq (    4) =       6.823788 [THz] =     227.617069 [cm-1]
     freq (    5) =       6.823788 [THz] =     227.617069 [cm-1]
     freq (    6) =       8.696005 [THz] =     290.067492 [cm-1]
     freq (    7) =       8.696005 [THz] =     290.067492 [cm-1]
     freq (    8) =      11.214795 [THz] =     374.085310 [cm-1]
     freq (    9) =      12.003040 [THz] =     400.378319 [cm-1]
 **************************************************************************

     Mode symmetry, D_3h (-62m) point group:

     freq (   1-   2) =        -22.3  [cm-1]   --> E'              I+R
     freq (   3-   3) =         32.1  [cm-1]   --> A''2            I  
     freq (   4-   5) =        227.6  [cm-1]   --> E''             R  
     freq (   6-   7) =        290.1  [cm-1]   --> E'              I+R
     freq (   8-   8) =        374.1  [cm-1]   --> A''2            I  
     freq (   9-   9) =        400.4  [cm-1]   --> A'_1            R  

     Calculation of q =    0.0000000   0.0962250   0.0000000

     Subspace diagonalization in iterative solution of the eigenvalue problem:
     a serial algorithm will be used

 
     Parallelization info
     --------------------
     sticks:   dense  smooth     PW     G-vecs:    dense   smooth      PW
     Min          60      31      9                 7329     2593     433
     Max          62      32     10                 7342     2605     452
     Sum        1099     559    163               132031    46753    7877
 
     Using Slab Decomposition
 

     Title: 
     TaS2                                                                       


     bravais-lattice index     =            4
     lattice parameter (alat)  =       6.3117  a.u.
     unit-cell volume          =     977.9382 (a.u.)^3
     number of atoms/cell      =            3
     number of atomic types    =            2
     number of electrons       =        17.00
     number of Kohn-Sham states=           13
     kinetic-energy cutoff     =      50.0000  Ry
     charge density cutoff     =     400.0000  Ry
     Exchange-correlation= PBE
                           (   1   4   3   4   0   0   0)

     celldm(1)=   6.311685  celldm(2)=   0.000000  celldm(3)=   4.491018
     celldm(4)=   0.000000  celldm(5)=   0.000000  celldm(6)=   0.000000

     crystal axes: (cart. coord. in units of alat)
               a(1) = (   1.000000   0.000000   0.000000 )  
               a(2) = (  -0.500000   0.866025   0.000000 )  
               a(3) = (   0.000000   0.000000   4.491018 )  

     reciprocal axes: (cart. coord. in units 2 pi/alat)
               b(1) = (  1.000000  0.577350  0.000000 )  
               b(2) = (  0.000000  1.154701  0.000000 )  
               b(3) = (  0.000000  0.000000  0.222667 )  


     PseudoPot. # 1 for Ta read from file:
     /fastscratch/tsievers/TaS2_24_ph_benchmark_images//pseudos/Ta.pbe-hgh.UPF
     MD5 check sum: 129c51a9a4223465c43ca8d238d17e53
     Pseudo is Norm-conserving, Zval =  5.0
     Generated in analytical, separable form
     Using radial grid of 1273 points,  6 beta functions with: 
                l(1) =   0
                l(2) =   0
                l(3) =   1
                l(4) =   1
                l(5) =   2
                l(6) =   2

     PseudoPot. # 2 for S  read from file:
     /fastscratch/tsievers/TaS2_24_ph_benchmark_images//pseudos/S.pbe-hgh.UPF
     MD5 check sum: 3a21e384b95a7cc84d045d3bcc0c4ba8
     Pseudo is Norm-conserving, Zval =  6.0
     Generated in analytical, separable form
     Using radial grid of 1151 points,  3 beta functions with: 
                l(1) =   0
                l(2) =   0
                l(3) =   1

     atomic species   valence    mass     pseudopotential
        Ta             5.00   180.95000     Ta( 1.00)
        S              6.00    32.06000     S ( 1.00)

     12 Sym. Ops. (no inversion) found



   Cartesian axes

     site n.     atom                  positions (alat units)
         1           S   tau(   1) = (  -0.0000000   0.5773503   0.4679048  )
         2           Ta  tau(   2) = (   0.0000000   0.0000000   0.0000000  )
         3           S   tau(   3) = (  -0.0000000   0.5773503  -0.4679048  )

     number of k points=   600  Marzari-Vanderbilt smearing, width (Ry)=  0.0060

     Number of k-points >= 100: set verbosity='high' to print them.

     Dense  grid:   132031 G-vectors     FFT dimensions: (  45,  45, 192)

     Smooth grid:    46753 G-vectors     FFT dimensions: (  30,  30, 128)

     Estimated max dynamical RAM per process >       6.81 MB

     Estimated total dynamical RAM >     122.67 MB
 ----2D----2D----2D----2D----2D----2D----2D----2D----2D----2D----2D----2D
  The code is running with the 2D cutoff
  Please refer to:
  Sohier, T., Calandra, M., & Mauri, F. (2017), 
  Density functional perturbation theory for gated two-dimensional heterostructu
 res:
  Theoretical developments and application to flexural phonons in graphene.
  Physical Review B, 96(7), 75448. https://doi.org/10.1103/PhysRevB.96.075448
 ----2D----2D----2D----2D----2D----2D----2D----2D----2D----2D----2D----2D

     The potential is recalculated from file :
     /fastscratch/tsievers/QE_TMP_DIR/_ph0/TaS2_24_ph_bench_nimages_8_n_procs_144_0.q_2/TaS2_24_ph_bench_nimages_8_n_procs_144_0.save/charge-density

     Starting wfcs are   27 atomic wfcs

     Band Structure Calculation
     Davidson diagonalization with overlap

     ethr =  5.88E-11,  avg # of iterations = 20.5

     total cpu time spent up to now is       70.4 secs

     End of band structure calculation

     Number of k-points >= 100: set verbosity='high' to print the bands.

     the Fermi energy is    -5.8804 ev

     Writing config to output data dir /fastscratch/tsievers/QE_TMP_DIR/_ph0/TaS2_24_ph_bench_nimages_8_n_procs_144_0.q_2/TaS2_24_ph_bench_nimages_8_n_procs_144_0.save/

     TaS2                                                                       

     bravais-lattice index     =            4
     lattice parameter (alat)  =       6.3117  a.u.
     unit-cell volume          =     977.9382 (a.u.)^3
     number of atoms/cell      =            3
     number of atomic types    =            2
     kinetic-energy cut-off    =      50.0000  Ry
     charge density cut-off    =     400.0000  Ry
     convergence threshold     =      1.0E-21
     beta                      =       0.7000
     number of iterations used =            4
     Exchange-correlation= PBE
                           (   1   4   3   4   0   0   0)


     celldm(1)=    6.31169  celldm(2)=    0.00000  celldm(3)=    4.49102
     celldm(4)=    0.00000  celldm(5)=    0.00000  celldm(6)=    0.00000

     crystal axes: (cart. coord. in units of alat)
               a(1) = (  1.0000  0.0000  0.0000 )  
               a(2) = ( -0.5000  0.8660  0.0000 )  
               a(3) = (  0.0000  0.0000  4.4910 )  

     reciprocal axes: (cart. coord. in units 2 pi/alat)
               b(1) = (  1.0000  0.5774  0.0000 )  
               b(2) = (  0.0000  1.1547  0.0000 )  
               b(3) = (  0.0000  0.0000  0.2227 )  


     Atoms inside the unit cell: 

     Cartesian axes

     site n.  atom      mass           positions (alat units)
        1     S   32.0600   tau(    1) = (   -0.00000    0.57735    0.46790  )
        2     Ta 180.9500   tau(    2) = (    0.00000    0.00000    0.00000  )
        3     S   32.0600   tau(    3) = (   -0.00000    0.57735   -0.46790  )

     Computing dynamical matrix for 
                    q = (   0.0000000   0.0962250   0.0000000 )
 
      4 Sym.Ops. (no q -> -q+G )


     G cutoff =  403.6370  (   7330 G-vectors)     FFT grid: ( 45, 45,192)
     G cutoff =  201.8185  (   2599 G-vectors)  smooth grid: ( 30, 30,128)

     number of k points=   600  Marzari-Vanderbilt smearing, width (Ry)=  0.0060

     PseudoPot. # 1 for Ta read from file:
     /fastscratch/tsievers/TaS2_24_ph_benchmark_images//pseudos/Ta.pbe-hgh.UPF
     MD5 check sum: 129c51a9a4223465c43ca8d238d17e53
     Pseudo is Norm-conserving, Zval =  5.0
     Generated in analytical, separable form
     Using radial grid of 1273 points,  6 beta functions with: 
                l(1) =   0
                l(2) =   0
                l(3) =   1
                l(4) =   1
                l(5) =   2
                l(6) =   2

     PseudoPot. # 2 for S  read from file:
     /fastscratch/tsievers/TaS2_24_ph_benchmark_images//pseudos/S.pbe-hgh.UPF
     MD5 check sum: 3a21e384b95a7cc84d045d3bcc0c4ba8
     Pseudo is Norm-conserving, Zval =  6.0
     Generated in analytical, separable form
     Using radial grid of 1151 points,  3 beta functions with: 
                l(1) =   0
                l(2) =   0
                l(3) =   1

     Mode symmetry, C_2v (mm2)  point group:


     Atomic displacements:
     There are    9 irreducible representations

     Representation     1      1 modes -  To be done

     Representation     2      1 modes -  To be done

     Representation     3      1 modes -  To be done

     Representation     4      1 modes -  To be done

     Representation     5      1 modes -  To be done

     Representation     6      1 modes -  To be done

     Representation     7      1 modes -  To be done

     Representation     8      1 modes -  To be done

     Representation     9      1 modes -  To be done



     Alpha used in Ewald sum =   2.8000
     PHONON       :   4m56.02s CPU   7m43.20s WALL



     Representation #   1 mode #   1

     Self-consistent Calculation

      iter #   1 total cpu time :   472.3 secs   av.it.:   9.0
      thresh= 1.000E-02 alpha_mix =  0.700 |ddv_scf|^2 =  1.837E-02

      iter #   2 total cpu time :   487.2 secs   av.it.:  14.5
      thresh= 1.000E-02 alpha_mix =  0.700 |ddv_scf|^2 =  1.005E+02

      iter #   3 total cpu time :   506.2 secs   av.it.:  14.6
      thresh= 1.000E-02 alpha_mix =  0.700 |ddv_scf|^2 =  5.439E-03

      iter #   4 total cpu time :   520.6 secs   av.it.:  10.1
      thresh= 7.375E-03 alpha_mix =  0.700 |ddv_scf|^2 =  3.001E-05

      iter #   5 total cpu time :   534.2 secs   av.it.:  13.7
      thresh= 5.478E-04 alpha_mix =  0.700 |ddv_scf|^2 =  2.933E-06

      iter #   6 total cpu time :   554.1 secs   av.it.:  12.9
      thresh= 1.713E-04 alpha_mix =  0.700 |ddv_scf|^2 =  9.548E-04

      iter #   7 total cpu time :   562.1 secs   av.it.:   8.6
      thresh= 3.090E-03 alpha_mix =  0.700 |ddv_scf|^2 =  1.364E-06

      iter #   8 total cpu time :   572.7 secs   av.it.:  10.9
      thresh= 1.168E-04 alpha_mix =  0.700 |ddv_scf|^2 =  1.762E-07

      iter #   9 total cpu time :   582.9 secs   av.it.:  10.3
      thresh= 4.198E-05 alpha_mix =  0.700 |ddv_scf|^2 =  1.198E-09

      iter #  10 total cpu time :   601.9 secs   av.it.:  12.2
      thresh= 3.461E-06 alpha_mix =  0.700 |ddv_scf|^2 =  7.321E-09

      iter #  11 total cpu time :   610.3 secs   av.it.:   9.2
      thresh= 8.556E-06 alpha_mix =  0.700 |ddv_scf|^2 =  1.948E-10

      iter #  12 total cpu time :   619.4 secs   av.it.:  10.0
      thresh= 1.396E-06 alpha_mix =  0.700 |ddv_scf|^2 =  7.273E-11

      iter #  13 total cpu time :   635.1 secs   av.it.:  10.2
      thresh= 8.528E-07 alpha_mix =  0.700 |ddv_scf|^2 =  3.836E-11

      iter #  14 total cpu time :   653.2 secs   av.it.:  10.3
      thresh= 6.193E-07 alpha_mix =  0.700 |ddv_scf|^2 =  7.770E-12

      iter #  15 total cpu time :   664.6 secs   av.it.:   9.1
      thresh= 2.787E-07 alpha_mix =  0.700 |ddv_scf|^2 =  1.166E-13

      iter #  16 total cpu time :   674.9 secs   av.it.:   9.4
      thresh= 3.415E-08 alpha_mix =  0.700 |ddv_scf|^2 =  7.319E-15

      iter #  17 total cpu time :   700.3 secs   av.it.:  10.3
      thresh= 8.555E-09 alpha_mix =  0.700 |ddv_scf|^2 =  2.266E-15

      iter #  18 total cpu time :   729.4 secs   av.it.:   8.9
      thresh= 4.760E-09 alpha_mix =  0.700 |ddv_scf|^2 =  3.949E-16

      iter #  19 total cpu time :   740.2 secs   av.it.:  10.0
      thresh= 1.987E-09 alpha_mix =  0.700 |ddv_scf|^2 =  1.122E-17

      iter #  20 total cpu time :   750.1 secs   av.it.:  11.6
      thresh= 3.350E-10 alpha_mix =  0.700 |ddv_scf|^2 =  3.305E-17

      iter #  21 total cpu time :   766.0 secs   av.it.:   9.3
      thresh= 5.749E-10 alpha_mix =  0.700 |ddv_scf|^2 =  3.142E-19

      iter #  22 total cpu time :   776.7 secs   av.it.:  11.2
      thresh= 5.605E-11 alpha_mix =  0.700 |ddv_scf|^2 =  2.596E-19

      iter #  23 total cpu time :   788.1 secs   av.it.:   8.1
      thresh= 5.095E-11 alpha_mix =  0.700 |ddv_scf|^2 =  4.991E-20

      iter #  24 total cpu time :   801.7 secs   av.it.:   9.4
      thresh= 2.234E-11 alpha_mix =  0.700 |ddv_scf|^2 =  8.652E-21

      iter #  25 total cpu time :   809.3 secs   av.it.:   9.6
      thresh= 9.302E-12 alpha_mix =  0.700 |ddv_scf|^2 =  2.625E-22

     End of self-consistent calculation

     Convergence has been achieved 


     Representation #   2 mode #   2

     Self-consistent Calculation

      iter #   1 total cpu time :   835.1 secs   av.it.:   9.2
      thresh= 1.000E-02 alpha_mix =  0.700 |ddv_scf|^2 =  9.381E-03

      iter #   2 total cpu time :   853.9 secs   av.it.:  14.1
      thresh= 9.686E-03 alpha_mix =  0.700 |ddv_scf|^2 =  5.352E+01

      iter #   3 total cpu time :   886.9 secs   av.it.:  14.0
      thresh= 1.000E-02 alpha_mix =  0.700 |ddv_scf|^2 =  9.218E-03

      iter #   4 total cpu time :   900.2 secs   av.it.:  11.5
      thresh= 9.601E-03 alpha_mix =  0.700 |ddv_scf|^2 =  8.493E-02

      iter #   5 total cpu time :   908.9 secs   av.it.:  11.1
      thresh= 1.000E-02 alpha_mix =  0.700 |ddv_scf|^2 =  1.242E-03

      iter #   6 total cpu time :   917.5 secs   av.it.:  10.9
      thresh= 3.525E-03 alpha_mix =  0.700 |ddv_scf|^2 =  2.763E-02

      iter #   7 total cpu time :   929.6 secs   av.it.:   8.4
      thresh= 1.000E-02 alpha_mix =  0.700 |ddv_scf|^2 =  1.836E-05

      iter #   8 total cpu time :   958.0 secs   av.it.:  11.3
      thresh= 4.285E-04 alpha_mix =  0.700 |ddv_scf|^2 =  2.385E-05

      iter #   9 total cpu time :   973.7 secs   av.it.:   9.8
      thresh= 4.884E-04 alpha_mix =  0.700 |ddv_scf|^2 =  8.950E-07

      iter #  10 total cpu time :   981.1 secs   av.it.:   9.0
      thresh= 9.460E-05 alpha_mix =  0.700 |ddv_scf|^2 =  8.873E-08

      iter #  11 total cpu time :   989.0 secs   av.it.:   9.7
      thresh= 2.979E-05 alpha_mix =  0.700 |ddv_scf|^2 =  1.617E-07

      iter #  12 total cpu time :  1015.9 secs   av.it.:   9.3
      thresh= 4.021E-05 alpha_mix =  0.700 |ddv_scf|^2 =  1.001E-09

      iter #  13 total cpu time :  1025.1 secs   av.it.:  10.1
      thresh= 3.164E-06 alpha_mix =  0.700 |ddv_scf|^2 =  5.169E-10

      iter #  14 total cpu time :  1053.9 secs   av.it.:  10.0
      thresh= 2.274E-06 alpha_mix =  0.700 |ddv_scf|^2 =  5.060E-11

      iter #  15 total cpu time :  1065.7 secs   av.it.:   9.4
      thresh= 7.113E-07 alpha_mix =  0.700 |ddv_scf|^2 =  8.115E-13

      iter #  16 total cpu time :  1074.3 secs   av.it.:   9.9
      thresh= 9.008E-08 alpha_mix =  0.700 |ddv_scf|^2 =  2.985E-13

      iter #  17 total cpu time :  1092.6 secs   av.it.:   9.1
      thresh= 5.464E-08 alpha_mix =  0.700 |ddv_scf|^2 =  1.162E-14

      iter #  18 total cpu time :  1133.2 secs   av.it.:  10.1
      thresh= 1.078E-08 alpha_mix =  0.700 |ddv_scf|^2 =  1.744E-15

      iter #  19 total cpu time :  1145.5 secs   av.it.:   9.5
      thresh= 4.176E-09 alpha_mix =  0.700 |ddv_scf|^2 =  4.016E-17

      iter #  20 total cpu time :  1154.3 secs   av.it.:  10.0
      thresh= 6.337E-10 alpha_mix =  0.700 |ddv_scf|^2 =  2.809E-17

      iter #  21 total cpu time :  1166.8 secs   av.it.:   9.5
      thresh= 5.300E-10 alpha_mix =  0.700 |ddv_scf|^2 =  6.080E-19

      iter #  22 total cpu time :  1177.3 secs   av.it.:  10.1
      thresh= 7.797E-11 alpha_mix =  0.700 |ddv_scf|^2 =  7.663E-20

      iter #  23 total cpu time :  1185.3 secs   av.it.:   9.4
      thresh= 2.768E-11 alpha_mix =  0.700 |ddv_scf|^2 =  6.542E-21

      iter #  24 total cpu time :  1195.9 secs   av.it.:   8.4
      thresh= 8.088E-12 alpha_mix =  0.700 |ddv_scf|^2 =  2.534E-21

      iter #  25 total cpu time :  1204.7 secs   av.it.:   9.7
      thresh= 5.034E-12 alpha_mix =  0.700 |ddv_scf|^2 =  1.058E-22

     End of self-consistent calculation

     Convergence has been achieved 


     Representation #   3 mode #   3

     Self-consistent Calculation

      iter #   1 total cpu time :  1239.5 secs   av.it.:   8.0
      thresh= 1.000E-02 alpha_mix =  0.700 |ddv_scf|^2 =  7.683E-03

      iter #   2 total cpu time :  1250.1 secs   av.it.:  14.0
      thresh= 8.765E-03 alpha_mix =  0.700 |ddv_scf|^2 =  4.203E+01

      iter #   3 total cpu time :  1265.7 secs   av.it.:  13.9
      thresh= 1.000E-02 alpha_mix =  0.700 |ddv_scf|^2 =  2.183E-03

      iter #   4 total cpu time :  1286.8 secs   av.it.:   7.5
      thresh= 4.672E-03 alpha_mix =  0.700 |ddv_scf|^2 =  1.392E-06

      iter #   5 total cpu time :  1309.9 secs   av.it.:  11.3
      thresh= 1.180E-04 alpha_mix =  0.700 |ddv_scf|^2 =  3.243E-05

      iter #   6 total cpu time :  1316.7 secs   av.it.:   6.5
      thresh= 5.695E-04 alpha_mix =  0.700 |ddv_scf|^2 =  2.242E-06

      iter #   7 total cpu time :  1326.3 secs   av.it.:  10.0
      thresh= 1.497E-04 alpha_mix =  0.700 |ddv_scf|^2 =  1.837E-06

      iter #   8 total cpu time :  1347.4 secs   av.it.:   9.5
      thresh= 1.355E-04 alpha_mix =  0.700 |ddv_scf|^2 =  2.932E-07

      iter #   9 total cpu time :  1361.5 secs   av.it.:  10.2
      thresh= 5.415E-05 alpha_mix =  0.700 |ddv_scf|^2 =  1.119E-07

      iter #  10 total cpu time :  1370.0 secs   av.it.:   9.4
      thresh= 3.345E-05 alpha_mix =  0.700 |ddv_scf|^2 =  2.262E-09

      iter #  11 total cpu time :  1378.1 secs   av.it.:   9.2
      thresh= 4.756E-06 alpha_mix =  0.700 |ddv_scf|^2 =  2.533E-12

      iter #  12 total cpu time :  1388.9 secs   av.it.:  10.9
      thresh= 1.591E-07 alpha_mix =  0.700 |ddv_scf|^2 =  1.479E-12

      iter #  13 total cpu time :  1427.0 secs   av.it.:  10.1
      thresh= 1.216E-07 alpha_mix =  0.700 |ddv_scf|^2 =  2.291E-13

      iter #  14 total cpu time :  1435.1 secs   av.it.:   9.4
      thresh= 4.786E-08 alpha_mix =  0.700 |ddv_scf|^2 =  1.681E-13

      iter #  15 total cpu time :  1443.0 secs   av.it.:   9.8
      thresh= 4.100E-08 alpha_mix =  0.700 |ddv_scf|^2 =  1.195E-13

      iter #  16 total cpu time :  1451.0 secs   av.it.:   9.0
      thresh= 3.457E-08 alpha_mix =  0.700 |ddv_scf|^2 =  1.296E-14

      iter #  17 total cpu time :  1496.3 secs   av.it.:   9.7
      thresh= 1.139E-08 alpha_mix =  0.700 |ddv_scf|^2 =  7.652E-17

      iter #  18 total cpu time :  1505.3 secs   av.it.:  10.8
      thresh= 8.747E-10 alpha_mix =  0.700 |ddv_scf|^2 =  4.577E-17

      iter #  19 total cpu time :  1531.0 secs   av.it.:   9.3
      thresh= 6.765E-10 alpha_mix =  0.700 |ddv_scf|^2 =  8.278E-18

      iter #  20 total cpu time :  1539.6 secs   av.it.:  10.0
      thresh= 2.877E-10 alpha_mix =  0.700 |ddv_scf|^2 =  3.597E-18

      iter #  21 total cpu time :  1555.7 secs   av.it.:   9.4
      thresh= 1.896E-10 alpha_mix =  0.700 |ddv_scf|^2 =  2.165E-19

      iter #  22 total cpu time :  1589.8 secs   av.it.:   9.8
      thresh= 4.652E-11 alpha_mix =  0.700 |ddv_scf|^2 =  1.064E-20

      iter #  23 total cpu time :  1603.0 secs   av.it.:  10.0
      thresh= 1.032E-11 alpha_mix =  0.700 |ddv_scf|^2 =  1.276E-21

      iter #  24 total cpu time :  1612.0 secs   av.it.:  10.6
      thresh= 3.572E-12 alpha_mix =  0.700 |ddv_scf|^2 =  2.537E-22

     End of self-consistent calculation

     Convergence has been achieved 


     Representation #   4 mode #   4

     Self-consistent Calculation

      iter #   1 total cpu time :  1631.7 secs   av.it.:   7.9
      thresh= 1.000E-02 alpha_mix =  0.700 |ddv_scf|^2 =  5.345E-08

      iter #   2 total cpu time :  1644.4 secs   av.it.:  16.3
      thresh= 2.312E-05 alpha_mix =  0.700 |ddv_scf|^2 =  4.861E-09

      iter #   3 total cpu time :  1677.8 secs   av.it.:  16.1
      thresh= 6.972E-06 alpha_mix =  0.700 |ddv_scf|^2 =  2.193E-10

      iter #   4 total cpu time :  1689.7 secs   av.it.:  14.4
      thresh= 1.481E-06 alpha_mix =  0.700 |ddv_scf|^2 =  6.066E-14

      iter #   5 total cpu time :  1703.2 secs   av.it.:  15.7
      thresh= 2.463E-08 alpha_mix =  0.700 |ddv_scf|^2 =  2.618E-15

      iter #   6 total cpu time :  1718.4 secs   av.it.:  15.1
      thresh= 5.116E-09 alpha_mix =  0.700 |ddv_scf|^2 =  8.170E-18

      iter #   7 total cpu time :  1732.3 secs   av.it.:  16.3
      thresh= 2.858E-10 alpha_mix =  0.700 |ddv_scf|^2 =  3.326E-19

      iter #   8 total cpu time :  1765.3 secs   av.it.:  16.7
      thresh= 5.767E-11 alpha_mix =  0.700 |ddv_scf|^2 =  1.267E-20

      iter #   9 total cpu time :  1777.7 secs   av.it.:  16.5
      thresh= 1.126E-11 alpha_mix =  0.700 |ddv_scf|^2 =  6.717E-22

     End of self-consistent calculation

     Convergence has been achieved 


     Representation #   5 mode #   5

     Self-consistent Calculation

      iter #   1 total cpu time :  1786.4 secs   av.it.:   7.0
      thresh= 1.000E-02 alpha_mix =  0.700 |ddv_scf|^2 =  7.560E-09

      iter #   2 total cpu time :  1805.1 secs   av.it.:  16.4
      thresh= 8.695E-06 alpha_mix =  0.700 |ddv_scf|^2 =  5.459E-10

      iter #   3 total cpu time :  1818.7 secs   av.it.:  15.9
      thresh= 2.336E-06 alpha_mix =  0.700 |ddv_scf|^2 =  5.850E-11

      iter #   4 total cpu time :  1840.4 secs   av.it.:  15.8
      thresh= 7.649E-07 alpha_mix =  0.700 |ddv_scf|^2 =  9.546E-13

      iter #   5 total cpu time :  1858.8 secs   av.it.:  16.2
      thresh= 9.770E-08 alpha_mix =  0.700 |ddv_scf|^2 =  2.140E-14

      iter #   6 total cpu time :  1883.8 secs   av.it.:  16.4
      thresh= 1.463E-08 alpha_mix =  0.700 |ddv_scf|^2 =  9.846E-17

      iter #   7 total cpu time :  1912.6 secs   av.it.:  16.5
      thresh= 9.923E-10 alpha_mix =  0.700 |ddv_scf|^2 =  2.478E-18

      iter #   8 total cpu time :  1938.1 secs   av.it.:  15.6
      thresh= 1.574E-10 alpha_mix =  0.700 |ddv_scf|^2 =  3.267E-20

      iter #   9 total cpu time :  1985.9 secs   av.it.:  15.7
      thresh= 1.808E-11 alpha_mix =  0.700 |ddv_scf|^2 =  3.626E-22

     End of self-consistent calculation

     Convergence has been achieved 


     Representation #   6 mode #   6

     Self-consistent Calculation

      iter #   1 total cpu time :  1996.2 secs   av.it.:   7.9
      thresh= 1.000E-02 alpha_mix =  0.700 |ddv_scf|^2 =  6.386E-08

      iter #   2 total cpu time :  2008.2 secs   av.it.:  16.5
      thresh= 2.527E-05 alpha_mix =  0.700 |ddv_scf|^2 =  7.047E-09

      iter #   3 total cpu time :  2045.7 secs   av.it.:  16.2
      thresh= 8.395E-06 alpha_mix =  0.700 |ddv_scf|^2 =  2.385E-10

      iter #   4 total cpu time :  2063.7 secs   av.it.:  14.5
      thresh= 1.544E-06 alpha_mix =  0.700 |ddv_scf|^2 =  9.804E-14

      iter #   5 total cpu time :  2110.0 secs   av.it.:  15.8
      thresh= 3.131E-08 alpha_mix =  0.700 |ddv_scf|^2 =  8.414E-15

      iter #   6 total cpu time :  2124.6 secs   av.it.:  16.2
      thresh= 9.173E-09 alpha_mix =  0.700 |ddv_scf|^2 =  1.014E-16

      iter #   7 total cpu time :  2144.7 secs   av.it.:  16.4
      thresh= 1.007E-09 alpha_mix =  0.700 |ddv_scf|^2 =  4.343E-18

      iter #   8 total cpu time :  2177.5 secs   av.it.:  16.5
      thresh= 2.084E-10 alpha_mix =  0.700 |ddv_scf|^2 =  3.721E-20

      iter #   9 total cpu time :  2192.7 secs   av.it.:  16.6
      thresh= 1.929E-11 alpha_mix =  0.700 |ddv_scf|^2 =  2.763E-21

      iter #  10 total cpu time :  2242.8 secs   av.it.:  16.4
      thresh= 5.257E-12 alpha_mix =  0.700 |ddv_scf|^2 =  7.102E-23

     End of self-consistent calculation

     Convergence has been achieved 


     Representation #   7 mode #   7

     Self-consistent Calculation

      iter #   1 total cpu time :  2251.1 secs   av.it.:   8.3
      thresh= 1.000E-02 alpha_mix =  0.700 |ddv_scf|^2 =  7.082E-06

      iter #   2 total cpu time :  2305.7 secs   av.it.:  15.2
      thresh= 2.661E-04 alpha_mix =  0.700 |ddv_scf|^2 =  1.297E-04

      iter #   3 total cpu time :  2315.4 secs   av.it.:  12.6
      thresh= 1.139E-03 alpha_mix =  0.700 |ddv_scf|^2 =  7.079E-08

      iter #   4 total cpu time :  2358.9 secs   av.it.:  14.6
      thresh= 2.661E-05 alpha_mix =  0.700 |ddv_scf|^2 =  5.296E-09

      iter #   5 total cpu time :  2372.5 secs   av.it.:  13.9
      thresh= 7.277E-06 alpha_mix =  0.700 |ddv_scf|^2 =  9.480E-11

      iter #   6 total cpu time :  2383.9 secs   av.it.:  14.4
      thresh= 9.737E-07 alpha_mix =  0.700 |ddv_scf|^2 =  3.009E-12

      iter #   7 total cpu time :  2433.8 secs   av.it.:  15.3
      thresh= 1.735E-07 alpha_mix =  0.700 |ddv_scf|^2 =  5.735E-12

      iter #   8 total cpu time :  2445.6 secs   av.it.:  13.7
      thresh= 2.395E-07 alpha_mix =  0.700 |ddv_scf|^2 =  1.400E-12

      iter #   9 total cpu time :  2463.8 secs   av.it.:  13.8
      thresh= 1.183E-07 alpha_mix =  0.700 |ddv_scf|^2 =  2.830E-14

      iter #  10 total cpu time :  2477.2 secs   av.it.:  14.9
      thresh= 1.682E-08 alpha_mix =  0.700 |ddv_scf|^2 =  1.753E-14

      iter #  11 total cpu time :  2491.4 secs   av.it.:  13.3
      thresh= 1.324E-08 alpha_mix =  0.700 |ddv_scf|^2 =  1.363E-16

      iter #  12 total cpu time :  2514.5 secs   av.it.:  15.3
      thresh= 1.167E-09 alpha_mix =  0.700 |ddv_scf|^2 =  4.689E-17

      iter #  13 total cpu time :  2549.5 secs   av.it.:  14.2
      thresh= 6.847E-10 alpha_mix =  0.700 |ddv_scf|^2 =  9.417E-19

      iter #  14 total cpu time :  2561.0 secs   av.it.:  14.4
      thresh= 9.704E-11 alpha_mix =  0.700 |ddv_scf|^2 =  2.329E-20

      iter #  15 total cpu time :  2578.4 secs   av.it.:  14.7
      thresh= 1.526E-11 alpha_mix =  0.700 |ddv_scf|^2 =  2.544E-21

      iter #  16 total cpu time :  2589.2 secs   av.it.:  14.1
      thresh= 5.044E-12 alpha_mix =  0.700 |ddv_scf|^2 =  8.451E-23

     End of self-consistent calculation

     Convergence has been achieved 


     Representation #   8 mode #   8

     Self-consistent Calculation

      iter #   1 total cpu time :  2607.6 secs   av.it.:   8.3
      thresh= 1.000E-02 alpha_mix =  0.700 |ddv_scf|^2 =  2.242E-05

      iter #   2 total cpu time :  2619.4 secs   av.it.:  15.2
      thresh= 4.735E-04 alpha_mix =  0.700 |ddv_scf|^2 =  4.432E-04

      iter #   3 total cpu time :  2637.8 secs   av.it.:  12.5
      thresh= 2.105E-03 alpha_mix =  0.700 |ddv_scf|^2 =  7.343E-09

      iter #   4 total cpu time :  2651.0 secs   av.it.:  15.8
      thresh= 8.569E-06 alpha_mix =  0.700 |ddv_scf|^2 =  7.414E-09

      iter #   5 total cpu time :  2663.5 secs   av.it.:  13.9
      thresh= 8.611E-06 alpha_mix =  0.700 |ddv_scf|^2 =  2.243E-10

      iter #   6 total cpu time :  2676.7 secs   av.it.:  13.7
      thresh= 1.498E-06 alpha_mix =  0.700 |ddv_scf|^2 =  3.988E-11

      iter #   7 total cpu time :  2686.7 secs   av.it.:  12.5
      thresh= 6.315E-07 alpha_mix =  0.700 |ddv_scf|^2 =  1.866E-11

      iter #   8 total cpu time :  2699.5 secs   av.it.:  13.2
      thresh= 4.320E-07 alpha_mix =  0.700 |ddv_scf|^2 =  2.227E-14

      iter #   9 total cpu time :  2713.6 secs   av.it.:  15.2
      thresh= 1.492E-08 alpha_mix =  0.700 |ddv_scf|^2 =  1.662E-15

      iter #  10 total cpu time :  2725.6 secs   av.it.:  15.3
      thresh= 4.077E-09 alpha_mix =  0.700 |ddv_scf|^2 =  3.418E-16

      iter #  11 total cpu time :  2739.9 secs   av.it.:  14.4
      thresh= 1.849E-09 alpha_mix =  0.700 |ddv_scf|^2 =  1.448E-17

      iter #  12 total cpu time :  2750.7 secs   av.it.:  13.7
      thresh= 3.805E-10 alpha_mix =  0.700 |ddv_scf|^2 =  4.149E-19

      iter #  13 total cpu time :  2788.3 secs   av.it.:  14.4
      thresh= 6.441E-11 alpha_mix =  0.700 |ddv_scf|^2 =  4.231E-19

      iter #  14 total cpu time :  2799.2 secs   av.it.:  13.4
      thresh= 6.504E-11 alpha_mix =  0.700 |ddv_scf|^2 =  5.514E-20

      iter #  15 total cpu time :  2809.7 secs   av.it.:  14.0
      thresh= 2.348E-11 alpha_mix =  0.700 |ddv_scf|^2 =  1.083E-21

      iter #  16 total cpu time :  2826.4 secs   av.it.:  14.3
      thresh= 3.291E-12 alpha_mix =  0.700 |ddv_scf|^2 =  6.354E-23

     End of self-consistent calculation

     Convergence has been achieved 


     Representation #   9 mode #   9

     Self-consistent Calculation

      iter #   1 total cpu time :  2834.1 secs   av.it.:   8.7
      thresh= 1.000E-02 alpha_mix =  0.700 |ddv_scf|^2 =  3.001E-05

      iter #   2 total cpu time :  2852.4 secs   av.it.:  15.1
      thresh= 5.478E-04 alpha_mix =  0.700 |ddv_scf|^2 =  5.185E-04

      iter #   3 total cpu time :  2866.8 secs   av.it.:  12.6
      thresh= 2.277E-03 alpha_mix =  0.700 |ddv_scf|^2 =  1.061E-06

      iter #   4 total cpu time :  2877.8 secs   av.it.:  13.7
      thresh= 1.030E-04 alpha_mix =  0.700 |ddv_scf|^2 =  2.195E-08

      iter #   5 total cpu time :  2893.0 secs   av.it.:  13.7
      thresh= 1.482E-05 alpha_mix =  0.700 |ddv_scf|^2 =  6.278E-11

      iter #   6 total cpu time :  2916.3 secs   av.it.:  14.2
      thresh= 7.924E-07 alpha_mix =  0.700 |ddv_scf|^2 =  2.481E-11

      iter #   7 total cpu time :  2927.6 secs   av.it.:  12.8
      thresh= 4.981E-07 alpha_mix =  0.700 |ddv_scf|^2 =  2.053E-12

      iter #   8 total cpu time :  2940.9 secs   av.it.:  14.4
      thresh= 1.433E-07 alpha_mix =  0.700 |ddv_scf|^2 =  4.294E-13

      iter #   9 total cpu time :  2955.2 secs   av.it.:  14.2
      thresh= 6.553E-08 alpha_mix =  0.700 |ddv_scf|^2 =  1.597E-14

      iter #  10 total cpu time :  2966.2 secs   av.it.:  13.5
      thresh= 1.264E-08 alpha_mix =  0.700 |ddv_scf|^2 =  5.043E-16

      iter #  11 total cpu time :  2977.8 secs   av.it.:  13.4
      thresh= 2.246E-09 alpha_mix =  0.700 |ddv_scf|^2 =  1.710E-18

      iter #  12 total cpu time :  2993.0 secs   av.it.:  15.3
      thresh= 1.308E-10 alpha_mix =  0.700 |ddv_scf|^2 =  5.124E-19

      iter #  13 total cpu time :  3005.0 secs   av.it.:  14.0
      thresh= 7.158E-11 alpha_mix =  0.700 |ddv_scf|^2 =  6.093E-20

      iter #  14 total cpu time :  3019.0 secs   av.it.:  14.7
      thresh= 2.468E-11 alpha_mix =  0.700 |ddv_scf|^2 =  1.962E-20

      iter #  15 total cpu time :  3029.9 secs   av.it.:  14.4
      thresh= 1.401E-11 alpha_mix =  0.700 |ddv_scf|^2 =  1.176E-21

      iter #  16 total cpu time :  3042.2 secs   av.it.:  15.1
      thresh= 3.430E-12 alpha_mix =  0.700 |ddv_scf|^2 =  3.147E-22

     End of self-consistent calculation

     Convergence has been achieved 
 
     Number of q in the star =    3
     List of q in the star:
          1   0.000000000   0.096225045   0.000000000
          2   0.083333333  -0.048112522   0.000000000
          3  -0.083333333  -0.048112522   0.000000000
     In addition there is the -q list: 
          1   0.000000000  -0.096225045   0.000000000
          2  -0.083333333   0.048112522   0.000000000
          3   0.083333333   0.048112522   0.000000000

     Diagonalizing the dynamical matrix

     q = (    0.000000000   0.096225045   0.000000000 ) 

 **************************************************************************
     freq (    1) =       0.499912 [THz] =      16.675257 [cm-1]
     freq (    2) =       0.892398 [THz] =      29.767205 [cm-1]
     freq (    3) =       1.335124 [THz] =      44.534927 [cm-1]
     freq (    4) =       6.966379 [THz] =     232.373389 [cm-1]
     freq (    5) =       7.081743 [THz] =     236.221515 [cm-1]
     freq (    6) =       8.320909 [THz] =     277.555641 [cm-1]
     freq (    7) =       8.569192 [THz] =     285.837487 [cm-1]
     freq (    8) =      11.084451 [THz] =     369.737476 [cm-1]
     freq (    9) =      11.944038 [THz] =     398.410214 [cm-1]
 **************************************************************************

     Mode symmetry, C_2v (mm2)  point group:

     freq (   1-   1) =         16.7  [cm-1]   --> B_1  D_3  S_3      
     freq (   2-   2) =         29.8  [cm-1]   --> B_2  D_4  S_4      
     freq (   3-   3) =         44.5  [cm-1]   --> A_1  D_1  S_1      
     freq (   4-   4) =        232.4  [cm-1]   --> A_2  D_2  S_2      
     freq (   5-   5) =        236.2  [cm-1]   --> B_2  D_4  S_4      
     freq (   6-   6) =        277.6  [cm-1]   --> B_1  D_3  S_3      
     freq (   7-   7) =        285.8  [cm-1]   --> A_1  D_1  S_1      
     freq (   8-   8) =        369.7  [cm-1]   --> B_2  D_4  S_4      
     freq (   9-   9) =        398.4  [cm-1]   --> A_1  D_1  S_1      

     Calculation of q =    0.0000000   0.1924501   0.0000000
 
     Parallelization info
     --------------------
     sticks:   dense  smooth     PW     G-vecs:    dense   smooth      PW
     Min          60      31      9                 7329     2593     443
     Max          62      32     10                 7342     2605     464
     Sum        1099     559    163               132031    46753    8057
 
     Using Slab Decomposition
 

     Title: 
     TaS2                                                                       


     bravais-lattice index     =            4
     lattice parameter (alat)  =       6.3117  a.u.
     unit-cell volume          =     977.9382 (a.u.)^3
     number of atoms/cell      =            3
     number of atomic types    =            2
     number of electrons       =        17.00
     number of Kohn-Sham states=           13
     kinetic-energy cutoff     =      50.0000  Ry
     charge density cutoff     =     400.0000  Ry
     Exchange-correlation= PBE
                           (   1   4   3   4   0   0   0)

     celldm(1)=   6.311685  celldm(2)=   0.000000  celldm(3)=   4.491018
     celldm(4)=   0.000000  celldm(5)=   0.000000  celldm(6)=   0.000000

     crystal axes: (cart. coord. in units of alat)
               a(1) = (   1.000000   0.000000   0.000000 )  
               a(2) = (  -0.500000   0.866025   0.000000 )  
               a(3) = (   0.000000   0.000000   4.491018 )  

     reciprocal axes: (cart. coord. in units 2 pi/alat)
               b(1) = (  1.000000  0.577350  0.000000 )  
               b(2) = (  0.000000  1.154701  0.000000 )  
               b(3) = (  0.000000  0.000000  0.222667 )  


     PseudoPot. # 1 for Ta read from file:
     /fastscratch/tsievers/TaS2_24_ph_benchmark_images//pseudos/Ta.pbe-hgh.UPF
     MD5 check sum: 129c51a9a4223465c43ca8d238d17e53
     Pseudo is Norm-conserving, Zval =  5.0
     Generated in analytical, separable form
     Using radial grid of 1273 points,  6 beta functions with: 
                l(1) =   0
                l(2) =   0
                l(3) =   1
                l(4) =   1
                l(5) =   2
                l(6) =   2

     PseudoPot. # 2 for S  read from file:
     /fastscratch/tsievers/TaS2_24_ph_benchmark_images//pseudos/S.pbe-hgh.UPF
     MD5 check sum: 3a21e384b95a7cc84d045d3bcc0c4ba8
     Pseudo is Norm-conserving, Zval =  6.0
     Generated in analytical, separable form
     Using radial grid of 1151 points,  3 beta functions with: 
                l(1) =   0
                l(2) =   0
                l(3) =   1

     atomic species   valence    mass     pseudopotential
        Ta             5.00   180.95000     Ta( 1.00)
        S              6.00    32.06000     S ( 1.00)

     12 Sym. Ops. (no inversion) found



   Cartesian axes

     site n.     atom                  positions (alat units)
         1           S   tau(   1) = (  -0.0000000   0.5773503   0.4679048  )
         2           Ta  tau(   2) = (   0.0000000   0.0000000   0.0000000  )
         3           S   tau(   3) = (  -0.0000000   0.5773503  -0.4679048  )

     number of k points=   600  Marzari-Vanderbilt smearing, width (Ry)=  0.0060

     Number of k-points >= 100: set verbosity='high' to print them.

     Dense  grid:   132031 G-vectors     FFT dimensions: (  45,  45, 192)

     Smooth grid:    46753 G-vectors     FFT dimensions: (  30,  30, 128)

     Estimated max dynamical RAM per process >       6.83 MB

     Estimated total dynamical RAM >     122.94 MB
 ----2D----2D----2D----2D----2D----2D----2D----2D----2D----2D----2D----2D
  The code is running with the 2D cutoff
  Please refer to:
  Sohier, T., Calandra, M., & Mauri, F. (2017), 
  Density functional perturbation theory for gated two-dimensional heterostructu
 res:
  Theoretical developments and application to flexural phonons in graphene.
  Physical Review B, 96(7), 75448. https://doi.org/10.1103/PhysRevB.96.075448
 ----2D----2D----2D----2D----2D----2D----2D----2D----2D----2D----2D----2D

     The potential is recalculated from file :
     /fastscratch/tsievers/QE_TMP_DIR/_ph0/TaS2_24_ph_bench_nimages_8_n_procs_144_0.q_3/TaS2_24_ph_bench_nimages_8_n_procs_144_0.save/charge-density

     Starting wfcs are   27 atomic wfcs

     Band Structure Calculation
     Davidson diagonalization with overlap

     ethr =  5.88E-11,  avg # of iterations = 20.5

     total cpu time spent up to now is      124.9 secs

     End of band structure calculation

     Number of k-points >= 100: set verbosity='high' to print the bands.

     the Fermi energy is    -5.8804 ev

     Writing config to output data dir /fastscratch/tsievers/QE_TMP_DIR/_ph0/TaS2_24_ph_bench_nimages_8_n_procs_144_0.q_3/TaS2_24_ph_bench_nimages_8_n_procs_144_0.save/

     TaS2                                                                       

     bravais-lattice index     =            4
     lattice parameter (alat)  =       6.3117  a.u.
     unit-cell volume          =     977.9382 (a.u.)^3
     number of atoms/cell      =            3
     number of atomic types    =            2
     kinetic-energy cut-off    =      50.0000  Ry
     charge density cut-off    =     400.0000  Ry
     convergence threshold     =      1.0E-21
     beta                      =       0.7000
     number of iterations used =            4
     Exchange-correlation= PBE
                           (   1   4   3   4   0   0   0)


     celldm(1)=    6.31169  celldm(2)=    0.00000  celldm(3)=    4.49102
     celldm(4)=    0.00000  celldm(5)=    0.00000  celldm(6)=    0.00000

     crystal axes: (cart. coord. in units of alat)
               a(1) = (  1.0000  0.0000  0.0000 )  
               a(2) = ( -0.5000  0.8660  0.0000 )  
               a(3) = (  0.0000  0.0000  4.4910 )  

     reciprocal axes: (cart. coord. in units 2 pi/alat)
               b(1) = (  1.0000  0.5774  0.0000 )  
               b(2) = (  0.0000  1.1547  0.0000 )  
               b(3) = (  0.0000  0.0000  0.2227 )  


     Atoms inside the unit cell: 

     Cartesian axes

     site n.  atom      mass           positions (alat units)
        1     S   32.0600   tau(    1) = (   -0.00000    0.57735    0.46790  )
        2     Ta 180.9500   tau(    2) = (    0.00000    0.00000    0.00000  )
        3     S   32.0600   tau(    3) = (   -0.00000    0.57735   -0.46790  )

     Computing dynamical matrix for 
                    q = (   0.0000000   0.1924501   0.0000000 )
 
      4 Sym.Ops. (no q -> -q+G )


     G cutoff =  403.6370  (   7330 G-vectors)     FFT grid: ( 45, 45,192)
     G cutoff =  201.8185  (   2599 G-vectors)  smooth grid: ( 30, 30,128)

     number of k points=   600  Marzari-Vanderbilt smearing, width (Ry)=  0.0060

     PseudoPot. # 1 for Ta read from file:
     /fastscratch/tsievers/TaS2_24_ph_benchmark_images//pseudos/Ta.pbe-hgh.UPF
     MD5 check sum: 129c51a9a4223465c43ca8d238d17e53
     Pseudo is Norm-conserving, Zval =  5.0
     Generated in analytical, separable form
     Using radial grid of 1273 points,  6 beta functions with: 
                l(1) =   0
                l(2) =   0
                l(3) =   1
                l(4) =   1
                l(5) =   2
                l(6) =   2

     PseudoPot. # 2 for S  read from file:
     /fastscratch/tsievers/TaS2_24_ph_benchmark_images//pseudos/S.pbe-hgh.UPF
     MD5 check sum: 3a21e384b95a7cc84d045d3bcc0c4ba8
     Pseudo is Norm-conserving, Zval =  6.0
     Generated in analytical, separable form
     Using radial grid of 1151 points,  3 beta functions with: 
                l(1) =   0
                l(2) =   0
                l(3) =   1

     Mode symmetry, C_2v (mm2)  point group:


     Atomic displacements:
     There are    9 irreducible representations

     Representation     1      1 modes -  To be done

     Representation     2      1 modes -  To be done

     Representation     3      1 modes -  To be done

     Representation     4      1 modes -  To be done

     Representation     5      1 modes -  To be done

     Representation     6      1 modes -  To be done

     Representation     7      1 modes -  To be done

     Representation     8      1 modes -  To be done

     Representation     9      1 modes -  To be done



     Alpha used in Ewald sum =   2.8000
     PHONON       :  39m34.95s CPU  51m57.78s WALL



     Representation #   1 mode #   1

     Self-consistent Calculation

      iter #   1 total cpu time :  3125.7 secs   av.it.:   9.1
      thresh= 1.000E-02 alpha_mix =  0.700 |ddv_scf|^2 =  1.348E-03

      iter #   2 total cpu time :  3145.6 secs   av.it.:  15.4
      thresh= 3.671E-03 alpha_mix =  0.700 |ddv_scf|^2 =  1.292E+00

      iter #   3 total cpu time :  3170.0 secs   av.it.:  13.8
      thresh= 1.000E-02 alpha_mix =  0.700 |ddv_scf|^2 =  6.670E-05

      iter #   4 total cpu time :  3180.8 secs   av.it.:  13.3
      thresh= 8.167E-04 alpha_mix =  0.700 |ddv_scf|^2 =  5.211E-05

      iter #   5 total cpu time :  3202.7 secs   av.it.:  12.6
      thresh= 7.219E-04 alpha_mix =  0.700 |ddv_scf|^2 =  1.018E-07

      iter #   6 total cpu time :  3213.4 secs   av.it.:  14.0
      thresh= 3.190E-05 alpha_mix =  0.700 |ddv_scf|^2 =  5.682E-06

      iter #   7 total cpu time :  3225.8 secs   av.it.:  10.9
      thresh= 2.384E-04 alpha_mix =  0.700 |ddv_scf|^2 =  2.766E-08

      iter #   8 total cpu time :  3236.9 secs   av.it.:  13.2
      thresh= 1.663E-05 alpha_mix =  0.700 |ddv_scf|^2 =  1.354E-09

      iter #   9 total cpu time :  3247.3 secs   av.it.:  12.8
      thresh= 3.680E-06 alpha_mix =  0.700 |ddv_scf|^2 =  3.837E-11

      iter #  10 total cpu time :  3261.2 secs   av.it.:  12.7
      thresh= 6.195E-07 alpha_mix =  0.700 |ddv_scf|^2 =  1.834E-11

      iter #  11 total cpu time :  3274.3 secs   av.it.:  12.3
      thresh= 4.282E-07 alpha_mix =  0.700 |ddv_scf|^2 =  1.346E-11

      iter #  12 total cpu time :  3284.7 secs   av.it.:  11.9
      thresh= 3.669E-07 alpha_mix =  0.700 |ddv_scf|^2 =  6.395E-14

      iter #  13 total cpu time :  3300.7 secs   av.it.:  13.4
      thresh= 2.529E-08 alpha_mix =  0.700 |ddv_scf|^2 =  1.470E-14

      iter #  14 total cpu time :  3310.4 secs   av.it.:  12.1
      thresh= 1.213E-08 alpha_mix =  0.700 |ddv_scf|^2 =  1.924E-15

      iter #  15 total cpu time :  3321.5 secs   av.it.:  12.8
      thresh= 4.387E-09 alpha_mix =  0.700 |ddv_scf|^2 =  1.877E-15

      iter #  16 total cpu time :  3333.4 secs   av.it.:  11.2
      thresh= 4.332E-09 alpha_mix =  0.700 |ddv_scf|^2 =  1.673E-16

      iter #  17 total cpu time :  3349.1 secs   av.it.:  11.6
      thresh= 1.293E-09 alpha_mix =  0.700 |ddv_scf|^2 =  1.912E-17

      iter #  18 total cpu time :  3359.7 secs   av.it.:  11.5
      thresh= 4.373E-10 alpha_mix =  0.700 |ddv_scf|^2 =  4.008E-19

      iter #  19 total cpu time :  3371.7 secs   av.it.:  13.2
      thresh= 6.331E-11 alpha_mix =  0.700 |ddv_scf|^2 =  1.207E-19

      iter #  20 total cpu time :  3383.4 secs   av.it.:  12.9
      thresh= 3.474E-11 alpha_mix =  0.700 |ddv_scf|^2 =  7.761E-20

      iter #  21 total cpu time :  3394.8 secs   av.it.:  11.5
      thresh= 2.786E-11 alpha_mix =  0.700 |ddv_scf|^2 =  1.584E-21

      iter #  22 total cpu time :  3407.4 secs   av.it.:  13.3
      thresh= 3.980E-12 alpha_mix =  0.700 |ddv_scf|^2 =  1.272E-21

      iter #  23 total cpu time :  3417.8 secs   av.it.:  11.6
      thresh= 3.567E-12 alpha_mix =  0.700 |ddv_scf|^2 =  2.188E-22

     End of self-consistent calculation

     Convergence has been achieved 


     Representation #   2 mode #   2

     Self-consistent Calculation

      iter #   1 total cpu time :  3428.5 secs   av.it.:   9.1
      thresh= 1.000E-02 alpha_mix =  0.700 |ddv_scf|^2 =  6.146E-04

      iter #   2 total cpu time :  3441.3 secs   av.it.:  15.6
      thresh= 2.479E-03 alpha_mix =  0.700 |ddv_scf|^2 =  6.290E-01

      iter #   3 total cpu time :  3468.8 secs   av.it.:  13.2
      thresh= 1.000E-02 alpha_mix =  0.700 |ddv_scf|^2 =  3.644E-04

      iter #   4 total cpu time :  3481.3 secs   av.it.:  13.2
      thresh= 1.909E-03 alpha_mix =  0.700 |ddv_scf|^2 =  1.030E-03

      iter #   5 total cpu time :  3498.7 secs   av.it.:  11.6
      thresh= 3.209E-03 alpha_mix =  0.700 |ddv_scf|^2 =  1.366E-06

      iter #   6 total cpu time :  3513.0 secs   av.it.:  13.9
      thresh= 1.169E-04 alpha_mix =  0.700 |ddv_scf|^2 =  5.199E-05

      iter #   7 total cpu time :  3521.2 secs   av.it.:   9.8
      thresh= 7.210E-04 alpha_mix =  0.700 |ddv_scf|^2 =  1.932E-07

      iter #   8 total cpu time :  3537.0 secs   av.it.:  13.2
      thresh= 4.395E-05 alpha_mix =  0.700 |ddv_scf|^2 =  6.425E-08

      iter #   9 total cpu time :  3573.1 secs   av.it.:  12.2
      thresh= 2.535E-05 alpha_mix =  0.700 |ddv_scf|^2 =  2.435E-10

      iter #  10 total cpu time :  3581.9 secs   av.it.:  11.1
      thresh= 1.561E-06 alpha_mix =  0.700 |ddv_scf|^2 =  3.312E-11

      iter #  11 total cpu time :  3595.8 secs   av.it.:  12.8
      thresh= 5.755E-07 alpha_mix =  0.700 |ddv_scf|^2 =  1.739E-11

      iter #  12 total cpu time :  3622.6 secs   av.it.:  11.6
      thresh= 4.171E-07 alpha_mix =  0.700 |ddv_scf|^2 =  1.061E-12

      iter #  13 total cpu time :  3638.4 secs   av.it.:  12.2
      thresh= 1.030E-07 alpha_mix =  0.700 |ddv_scf|^2 =  1.600E-13

      iter #  14 total cpu time :  3651.5 secs   av.it.:  12.0
      thresh= 4.000E-08 alpha_mix =  0.700 |ddv_scf|^2 =  2.087E-14

      iter #  15 total cpu time :  3662.9 secs   av.it.:  12.2
      thresh= 1.445E-08 alpha_mix =  0.700 |ddv_scf|^2 =  9.385E-16

      iter #  16 total cpu time :  3677.3 secs   av.it.:  12.5
      thresh= 3.063E-09 alpha_mix =  0.700 |ddv_scf|^2 =  2.249E-16

      iter #  17 total cpu time :  3694.5 secs   av.it.:  11.6
      thresh= 1.500E-09 alpha_mix =  0.700 |ddv_scf|^2 =  6.673E-18

      iter #  18 total cpu time :  3710.5 secs   av.it.:  11.5
      thresh= 2.583E-10 alpha_mix =  0.700 |ddv_scf|^2 =  1.332E-18

      iter #  19 total cpu time :  3720.7 secs   av.it.:  11.7
      thresh= 1.154E-10 alpha_mix =  0.700 |ddv_scf|^2 =  1.926E-20

      iter #  20 total cpu time :  3734.2 secs   av.it.:  13.5
      thresh= 1.388E-11 alpha_mix =  0.700 |ddv_scf|^2 =  1.345E-20

      iter #  21 total cpu time :  3746.5 secs   av.it.:  13.2
      thresh= 1.160E-11 alpha_mix =  0.700 |ddv_scf|^2 =  6.980E-21

      iter #  22 total cpu time :  3756.5 secs   av.it.:  10.7
      thresh= 8.355E-12 alpha_mix =  0.700 |ddv_scf|^2 =  1.349E-21

      iter #  23 total cpu time :  3785.0 secs   av.it.:  12.2
      thresh= 3.673E-12 alpha_mix =  0.700 |ddv_scf|^2 =  1.618E-23

     End of self-consistent calculation

     Convergence has been achieved 


     Representation #   3 mode #   3

     Self-consistent Calculation

      iter #   1 total cpu time :  3800.4 secs   av.it.:   8.4
      thresh= 1.000E-02 alpha_mix =  0.700 |ddv_scf|^2 =  6.535E-04

      iter #   2 total cpu time :  3812.5 secs   av.it.:  15.4
      thresh= 2.556E-03 alpha_mix =  0.700 |ddv_scf|^2 =  6.313E-01

      iter #   3 total cpu time :  3834.3 secs   av.it.:  13.2
      thresh= 1.000E-02 alpha_mix =  0.700 |ddv_scf|^2 =  9.535E-06

      iter #   4 total cpu time :  3844.2 secs   av.it.:  12.0
      thresh= 3.088E-04 alpha_mix =  0.700 |ddv_scf|^2 =  9.245E-07

      iter #   5 total cpu time :  3856.6 secs   av.it.:  12.3
      thresh= 9.615E-05 alpha_mix =  0.700 |ddv_scf|^2 =  3.968E-07

      iter #   6 total cpu time :  3868.0 secs   av.it.:   9.9
      thresh= 6.299E-05 alpha_mix =  0.700 |ddv_scf|^2 =  2.538E-07

      iter #   7 total cpu time :  3878.5 secs   av.it.:  11.4
      thresh= 5.038E-05 alpha_mix =  0.700 |ddv_scf|^2 =  1.096E-09

      iter #   8 total cpu time :  3898.7 secs   av.it.:  13.6
      thresh= 3.311E-06 alpha_mix =  0.700 |ddv_scf|^2 =  2.303E-10

      iter #   9 total cpu time :  3912.3 secs   av.it.:  12.5
      thresh= 1.517E-06 alpha_mix =  0.700 |ddv_scf|^2 =  3.091E-11

      iter #  10 total cpu time :  3923.6 secs   av.it.:  12.3
      thresh= 5.560E-07 alpha_mix =  0.700 |ddv_scf|^2 =  1.179E-12

      iter #  11 total cpu time :  3940.1 secs   av.it.:  12.4
      thresh= 1.086E-07 alpha_mix =  0.700 |ddv_scf|^2 =  7.174E-13

      iter #  12 total cpu time :  3953.0 secs   av.it.:  11.5
      thresh= 8.470E-08 alpha_mix =  0.700 |ddv_scf|^2 =  4.944E-16

      iter #  13 total cpu time :  3968.9 secs   av.it.:  14.9
      thresh= 2.223E-09 alpha_mix =  0.700 |ddv_scf|^2 =  1.229E-15

      iter #  14 total cpu time :  3980.5 secs   av.it.:  12.9
      thresh= 3.505E-09 alpha_mix =  0.700 |ddv_scf|^2 =  2.960E-17

      iter #  15 total cpu time :  3992.2 secs   av.it.:  13.4
      thresh= 5.441E-10 alpha_mix =  0.700 |ddv_scf|^2 =  1.474E-17

      iter #  16 total cpu time :  4002.5 secs   av.it.:  11.6
      thresh= 3.840E-10 alpha_mix =  0.700 |ddv_scf|^2 =  3.444E-18

      iter #  17 total cpu time :  4013.2 secs   av.it.:  10.5
      thresh= 1.856E-10 alpha_mix =  0.700 |ddv_scf|^2 =  1.611E-18

      iter #  18 total cpu time :  4025.0 secs   av.it.:  12.2
      thresh= 1.269E-10 alpha_mix =  0.700 |ddv_scf|^2 =  2.931E-19

      iter #  19 total cpu time :  4035.2 secs   av.it.:  12.1
      thresh= 5.413E-11 alpha_mix =  0.700 |ddv_scf|^2 =  1.297E-20

      iter #  20 total cpu time :  4048.0 secs   av.it.:  12.3
      thresh= 1.139E-11 alpha_mix =  0.700 |ddv_scf|^2 =  4.637E-22

     End of self-consistent calculation

     Convergence has been achieved 


     Representation #   4 mode #   4

     Self-consistent Calculation

      iter #   1 total cpu time :  4057.7 secs   av.it.:   7.9
      thresh= 1.000E-02 alpha_mix =  0.700 |ddv_scf|^2 =  5.806E-08

      iter #   2 total cpu time :  4071.3 secs   av.it.:  16.3
      thresh= 2.410E-05 alpha_mix =  0.700 |ddv_scf|^2 =  5.616E-09

      iter #   3 total cpu time :  4091.8 secs   av.it.:  16.1
      thresh= 7.494E-06 alpha_mix =  0.700 |ddv_scf|^2 =  2.271E-10

      iter #   4 total cpu time :  4111.6 secs   av.it.:  14.4
      thresh= 1.507E-06 alpha_mix =  0.700 |ddv_scf|^2 =  6.406E-14

      iter #   5 total cpu time :  4124.4 secs   av.it.:  15.8
      thresh= 2.531E-08 alpha_mix =  0.700 |ddv_scf|^2 =  2.725E-15

      iter #   6 total cpu time :  4138.7 secs   av.it.:  15.2
      thresh= 5.220E-09 alpha_mix =  0.700 |ddv_scf|^2 =  1.078E-17

      iter #   7 total cpu time :  4179.8 secs   av.it.:  16.3
      thresh= 3.284E-10 alpha_mix =  0.700 |ddv_scf|^2 =  4.032E-19

      iter #   8 total cpu time :  4192.2 secs   av.it.:  16.8
      thresh= 6.350E-11 alpha_mix =  0.700 |ddv_scf|^2 =  1.375E-20

      iter #   9 total cpu time :  4215.7 secs   av.it.:  16.4
      thresh= 1.173E-11 alpha_mix =  0.700 |ddv_scf|^2 =  9.224E-22

     End of self-consistent calculation

     Convergence has been achieved 


     Representation #   5 mode #   5

     Self-consistent Calculation

      iter #   1 total cpu time :  4222.6 secs   av.it.:   7.1
      thresh= 1.000E-02 alpha_mix =  0.700 |ddv_scf|^2 =  9.371E-09

      iter #   2 total cpu time :  4235.6 secs   av.it.:  16.5
      thresh= 9.680E-06 alpha_mix =  0.700 |ddv_scf|^2 =  7.829E-10

      iter #   3 total cpu time :  4254.1 secs   av.it.:  16.1
      thresh= 2.798E-06 alpha_mix =  0.700 |ddv_scf|^2 =  7.763E-11

      iter #   4 total cpu time :  4266.7 secs   av.it.:  15.9
      thresh= 8.811E-07 alpha_mix =  0.700 |ddv_scf|^2 =  1.165E-12

      iter #   5 total cpu time :  4284.7 secs   av.it.:  16.2
      thresh= 1.079E-07 alpha_mix =  0.700 |ddv_scf|^2 =  5.125E-14

      iter #   6 total cpu time :  4298.8 secs   av.it.:  16.5
      thresh= 2.264E-08 alpha_mix =  0.700 |ddv_scf|^2 =  1.487E-16

      iter #   7 total cpu time :  4318.4 secs   av.it.:  16.5
      thresh= 1.219E-09 alpha_mix =  0.700 |ddv_scf|^2 =  4.162E-18

      iter #   8 total cpu time :  4334.9 secs   av.it.:  15.7
      thresh= 2.040E-10 alpha_mix =  0.700 |ddv_scf|^2 =  5.450E-20

      iter #   9 total cpu time :  4350.1 secs   av.it.:  16.1
      thresh= 2.334E-11 alpha_mix =  0.700 |ddv_scf|^2 =  2.260E-21

      iter #  10 total cpu time :  4388.4 secs   av.it.:  16.5
      thresh= 4.754E-12 alpha_mix =  0.700 |ddv_scf|^2 =  1.596E-22

     End of self-consistent calculation

     Convergence has been achieved 


     Representation #   6 mode #   6

     Self-consistent Calculation

      iter #   1 total cpu time :  4399.7 secs   av.it.:   8.0
      thresh= 1.000E-02 alpha_mix =  0.700 |ddv_scf|^2 =  7.155E-08

      iter #   2 total cpu time :  4413.9 secs   av.it.:  16.5
      thresh= 2.675E-05 alpha_mix =  0.700 |ddv_scf|^2 =  8.893E-09

      iter #   3 total cpu time :  4441.4 secs   av.it.:  16.3
      thresh= 9.430E-06 alpha_mix =  0.700 |ddv_scf|^2 =  2.514E-10

      iter #   4 total cpu time :  4459.5 secs   av.it.:  14.6
      thresh= 1.586E-06 alpha_mix =  0.700 |ddv_scf|^2 =  1.573E-13

      iter #   5 total cpu time :  4472.5 secs   av.it.:  16.2
      thresh= 3.967E-08 alpha_mix =  0.700 |ddv_scf|^2 =  1.984E-14

      iter #   6 total cpu time :  4488.9 secs   av.it.:  16.3
      thresh= 1.409E-08 alpha_mix =  0.700 |ddv_scf|^2 =  2.633E-16

      iter #   7 total cpu time :  4503.9 secs   av.it.:  16.4
      thresh= 1.623E-09 alpha_mix =  0.700 |ddv_scf|^2 =  1.456E-17

      iter #   8 total cpu time :  4526.0 secs   av.it.:  16.4
      thresh= 3.816E-10 alpha_mix =  0.700 |ddv_scf|^2 =  8.919E-20

      iter #   9 total cpu time :  4542.0 secs   av.it.:  16.7
      thresh= 2.987E-11 alpha_mix =  0.700 |ddv_scf|^2 =  4.324E-21

      iter #  10 total cpu time :  4573.8 secs   av.it.:  16.5
      thresh= 6.576E-12 alpha_mix =  0.700 |ddv_scf|^2 =  2.397E-22

     End of self-consistent calculation

     Convergence has been achieved 


     Representation #   7 mode #   7

     Self-consistent Calculation

      iter #   1 total cpu time :  4585.5 secs   av.it.:   8.4
      thresh= 1.000E-02 alpha_mix =  0.700 |ddv_scf|^2 =  4.209E-06

      iter #   2 total cpu time :  4600.5 secs   av.it.:  15.7
      thresh= 2.052E-04 alpha_mix =  0.700 |ddv_scf|^2 =  3.667E-05

      iter #   3 total cpu time :  4622.1 secs   av.it.:  13.6
      thresh= 6.056E-04 alpha_mix =  0.700 |ddv_scf|^2 =  3.902E-08

      iter #   4 total cpu time :  4637.8 secs   av.it.:  15.2
      thresh= 1.975E-05 alpha_mix =  0.700 |ddv_scf|^2 =  1.152E-09

      iter #   5 total cpu time :  4651.7 secs   av.it.:  14.7
      thresh= 3.394E-06 alpha_mix =  0.700 |ddv_scf|^2 =  2.304E-11

      iter #   6 total cpu time :  4664.3 secs   av.it.:  14.3
      thresh= 4.800E-07 alpha_mix =  0.700 |ddv_scf|^2 =  2.601E-13

      iter #   7 total cpu time :  4678.3 secs   av.it.:  15.5
      thresh= 5.100E-08 alpha_mix =  0.700 |ddv_scf|^2 =  2.505E-13

[...]
      thresh= 2.337E-08 alpha_mix =  0.700 |ddv_scf|^2 =  3.361E-14

      iter #  13 total cpu time :  6759.0 secs   av.it.:  14.4
      thresh= 1.833E-08 alpha_mix =  0.700 |ddv_scf|^2 =  4.611E-14

      iter #  14 total cpu time :  6769.0 secs   av.it.:  12.9
      thresh= 2.147E-08 alpha_mix =  0.700 |ddv_scf|^2 =  2.984E-14

      iter #  15 total cpu time :  6798.8 secs   av.it.:  11.9
      thresh= 1.728E-08 alpha_mix =  0.700 |ddv_scf|^2 =  1.153E-14

      iter #  16 total cpu time :  6827.3 secs   av.it.:  13.9
      thresh= 1.074E-08 alpha_mix =  0.700 |ddv_scf|^2 =  7.508E-16

      iter #  17 total cpu time :  6870.6 secs   av.it.:  14.9
      thresh= 2.740E-09 alpha_mix =  0.700 |ddv_scf|^2 =  1.350E-15

      iter #  18 total cpu time :  6881.5 secs   av.it.:  13.3
      thresh= 3.675E-09 alpha_mix =  0.700 |ddv_scf|^2 =  4.329E-17

      iter #  19 total cpu time :  6922.2 secs   av.it.:  15.0
      thresh= 6.579E-10 alpha_mix =  0.700 |ddv_scf|^2 =  7.138E-17

      iter #  20 total cpu time :  6933.2 secs   av.it.:  13.7
      thresh= 8.449E-10 alpha_mix =  0.700 |ddv_scf|^2 =  1.097E-18

      iter #  21 total cpu time :  6960.2 secs   av.it.:  14.6
      thresh= 1.047E-10 alpha_mix =  0.700 |ddv_scf|^2 =  7.247E-20

      iter #  22 total cpu time :  7002.2 secs   av.it.:  14.2
      thresh= 2.692E-11 alpha_mix =  0.700 |ddv_scf|^2 =  3.330E-20

      iter #  23 total cpu time :  7036.6 secs   av.it.:  14.0
      thresh= 1.825E-11 alpha_mix =  0.700 |ddv_scf|^2 =  8.206E-21

      iter #  24 total cpu time :  7056.1 secs   av.it.:  14.7
      thresh= 9.059E-12 alpha_mix =  0.700 |ddv_scf|^2 =  1.309E-21

      iter #  25 total cpu time :  7067.9 secs   av.it.:  13.6
      thresh= 3.618E-12 alpha_mix =  0.700 |ddv_scf|^2 =  1.726E-22

     End of self-consistent calculation

     Convergence has been achieved 


     Representation #   4 mode #   4

     Self-consistent Calculation

      iter #   1 total cpu time :  7076.3 secs   av.it.:   7.9
      thresh= 1.000E-02 alpha_mix =  0.700 |ddv_scf|^2 =  6.453E-08

      iter #   2 total cpu time :  7115.5 secs   av.it.:  16.3
      thresh= 2.540E-05 alpha_mix =  0.700 |ddv_scf|^2 =  6.769E-09

      iter #   3 total cpu time :  7153.3 secs   av.it.:  16.0
      thresh= 8.227E-06 alpha_mix =  0.700 |ddv_scf|^2 =  2.370E-10

      iter #   4 total cpu time :  7166.1 secs   av.it.:  14.4
      thresh= 1.540E-06 alpha_mix =  0.700 |ddv_scf|^2 =  7.013E-14

      iter #   5 total cpu time :  7188.5 secs   av.it.:  15.8
      thresh= 2.648E-08 alpha_mix =  0.700 |ddv_scf|^2 =  2.991E-15

      iter #   6 total cpu time :  7242.2 secs   av.it.:  15.2
      thresh= 5.469E-09 alpha_mix =  0.700 |ddv_scf|^2 =  1.530E-17

      iter #   7 total cpu time :  7254.5 secs   av.it.:  16.2
      thresh= 3.912E-10 alpha_mix =  0.700 |ddv_scf|^2 =  4.892E-19

      iter #   8 total cpu time :  7281.8 secs   av.it.:  16.8
      thresh= 6.995E-11 alpha_mix =  0.700 |ddv_scf|^2 =  2.082E-20

      iter #   9 total cpu time :  7301.1 secs   av.it.:  16.4
      thresh= 1.443E-11 alpha_mix =  0.700 |ddv_scf|^2 =  1.612E-21

      iter #  10 total cpu time :  7316.8 secs   av.it.:  16.6
      thresh= 4.015E-12 alpha_mix =  0.700 |ddv_scf|^2 =  6.026E-23

     End of self-consistent calculation

     Convergence has been achieved 


     Representation #   5 mode #   5

     Self-consistent Calculation

      iter #   1 total cpu time :  7329.6 secs   av.it.:   7.2
      thresh= 1.000E-02 alpha_mix =  0.700 |ddv_scf|^2 =  1.239E-08

      iter #   2 total cpu time :  7359.8 secs   av.it.:  16.6
      thresh= 1.113E-05 alpha_mix =  0.700 |ddv_scf|^2 =  1.245E-09

      iter #   3 total cpu time :  7375.0 secs   av.it.:  16.2
      thresh= 3.529E-06 alpha_mix =  0.700 |ddv_scf|^2 =  1.009E-10

      iter #   4 total cpu time :  7392.6 secs   av.it.:  16.0
      thresh= 1.004E-06 alpha_mix =  0.700 |ddv_scf|^2 =  1.992E-12

      iter #   5 total cpu time :  7407.1 secs   av.it.:  16.3
      thresh= 1.411E-07 alpha_mix =  0.700 |ddv_scf|^2 =  1.937E-13

      iter #   6 total cpu time :  7422.4 secs   av.it.:  16.6
      thresh= 4.401E-08 alpha_mix =  0.700 |ddv_scf|^2 =  2.094E-16

      iter #   7 total cpu time :  7436.9 secs   av.it.:  16.4
      thresh= 1.447E-09 alpha_mix =  0.700 |ddv_scf|^2 =  1.355E-17

      iter #   8 total cpu time :  7450.1 secs   av.it.:  15.9
      thresh= 3.681E-10 alpha_mix =  0.700 |ddv_scf|^2 =  2.076E-19

      iter #   9 total cpu time :  7467.5 secs   av.it.:  16.3
      thresh= 4.556E-11 alpha_mix =  0.700 |ddv_scf|^2 =  1.182E-20

      iter #  10 total cpu time :  7481.8 secs   av.it.:  16.5
      thresh= 1.087E-11 alpha_mix =  0.700 |ddv_scf|^2 =  3.662E-22

     End of self-consistent calculation

     Convergence has been achieved 


     Representation #   6 mode #   6

     Self-consistent Calculation

      iter #   1 total cpu time :  7494.0 secs   av.it.:   8.1
      thresh= 1.000E-02 alpha_mix =  0.700 |ddv_scf|^2 =  8.328E-08

      iter #   2 total cpu time :  7510.6 secs   av.it.:  16.6
      thresh= 2.886E-05 alpha_mix =  0.700 |ddv_scf|^2 =  1.203E-08

      iter #   3 total cpu time :  7536.2 secs   av.it.:  16.3
      thresh= 1.097E-05 alpha_mix =  0.700 |ddv_scf|^2 =  2.692E-10

      iter #   4 total cpu time :  7548.8 secs   av.it.:  14.8
      thresh= 1.641E-06 alpha_mix =  0.700 |ddv_scf|^2 =  3.860E-13

      iter #   5 total cpu time :  7572.6 secs   av.it.:  16.3
      thresh= 6.213E-08 alpha_mix =  0.700 |ddv_scf|^2 =  6.150E-14

      iter #   6 total cpu time :  7586.9 secs   av.it.:  16.4
      thresh= 2.480E-08 alpha_mix =  0.700 |ddv_scf|^2 =  8.394E-16

      iter #   7 total cpu time :  7603.1 secs   av.it.:  16.5
      thresh= 2.897E-09 alpha_mix =  0.700 |ddv_scf|^2 =  3.118E-17

      iter #   8 total cpu time :  7617.5 secs   av.it.:  16.3
      thresh= 5.584E-10 alpha_mix =  0.700 |ddv_scf|^2 =  1.740E-19

      iter #   9 total cpu time :  7637.3 secs   av.it.:  16.8
      thresh= 4.171E-11 alpha_mix =  0.700 |ddv_scf|^2 =  9.067E-21

      iter #  10 total cpu time :  7649.8 secs   av.it.:  16.6
      thresh= 9.522E-12 alpha_mix =  0.700 |ddv_scf|^2 =  6.901E-22

     End of self-consistent calculation

     Convergence has been achieved 


     Representation #   7 mode #   7

     Self-consistent Calculation

      iter #   1 total cpu time :  7658.6 secs   av.it.:   8.4
      thresh= 1.000E-02 alpha_mix =  0.700 |ddv_scf|^2 =  2.329E-06

      iter #   2 total cpu time :  7672.4 secs   av.it.:  16.0
      thresh= 1.526E-04 alpha_mix =  0.700 |ddv_scf|^2 =  1.037E-05

      iter #   3 total cpu time :  7690.0 secs   av.it.:  14.3
      thresh= 3.221E-04 alpha_mix =  0.700 |ddv_scf|^2 =  3.248E-08

      iter #   4 total cpu time :  7705.1 secs   av.it.:  15.6
      thresh= 1.802E-05 alpha_mix =  0.700 |ddv_scf|^2 =  3.912E-10

      iter #   5 total cpu time :  7716.9 secs   av.it.:  15.1
      thresh= 1.978E-06 alpha_mix =  0.700 |ddv_scf|^2 =  6.315E-12

      iter #   6 total cpu time :  7731.8 secs   av.it.:  15.4
      thresh= 2.513E-07 alpha_mix =  0.700 |ddv_scf|^2 =  3.573E-13

      iter #   7 total cpu time :  7743.9 secs   av.it.:  15.5
      thresh= 5.978E-08 alpha_mix =  0.700 |ddv_scf|^2 =  7.128E-15

      iter #   8 total cpu time :  7758.3 secs   av.it.:  15.4
      thresh= 8.443E-09 alpha_mix =  0.700 |ddv_scf|^2 =  6.229E-15

      iter #   9 total cpu time :  7801.5 secs   av.it.:  15.0
      thresh= 7.893E-09 alpha_mix =  0.700 |ddv_scf|^2 =  1.724E-15

      iter #  10 total cpu time :  7812.6 secs   av.it.:  14.9
      thresh= 4.152E-09 alpha_mix =  0.700 |ddv_scf|^2 =  3.466E-17

      iter #  11 total cpu time :  7834.6 secs   av.it.:  15.7
      thresh= 5.888E-10 alpha_mix =  0.700 |ddv_scf|^2 =  7.385E-18

      iter #  12 total cpu time :  7847.7 secs   av.it.:  15.5
      thresh= 2.718E-10 alpha_mix =  0.700 |ddv_scf|^2 =  5.021E-19

      iter #  13 total cpu time :  7862.8 secs   av.it.:  15.5
      thresh= 7.086E-11 alpha_mix =  0.700 |ddv_scf|^2 =  4.566E-20

      iter #  14 total cpu time :  7882.5 secs   av.it.:  15.6
      thresh= 2.137E-11 alpha_mix =  0.700 |ddv_scf|^2 =  4.351E-21

      iter #  15 total cpu time :  7900.3 secs   av.it.:  15.6
      thresh= 6.597E-12 alpha_mix =  0.700 |ddv_scf|^2 =  6.262E-22

     End of self-consistent calculation

     Convergence has been achieved 


     Representation #   8 mode #   8

     Self-consistent Calculation

      iter #   1 total cpu time :  7908.3 secs   av.it.:   8.0
      thresh= 1.000E-02 alpha_mix =  0.700 |ddv_scf|^2 =  1.162E-06

      iter #   2 total cpu time :  7925.7 secs   av.it.:  16.1
      thresh= 1.078E-04 alpha_mix =  0.700 |ddv_scf|^2 =  5.866E-06

      iter #   3 total cpu time :  7937.1 secs   av.it.:  14.2
      thresh= 2.422E-04 alpha_mix =  0.700 |ddv_scf|^2 =  2.645E-09

      iter #   4 total cpu time :  7950.6 secs   av.it.:  15.8
      thresh= 5.143E-06 alpha_mix =  0.700 |ddv_scf|^2 =  8.698E-11

      iter #   5 total cpu time :  7967.1 secs   av.it.:  15.8
      thresh= 9.326E-07 alpha_mix =  0.700 |ddv_scf|^2 =  3.600E-12

      iter #   6 total cpu time :  7980.6 secs   av.it.:  16.2
      thresh= 1.897E-07 alpha_mix =  0.700 |ddv_scf|^2 =  1.094E-12

      iter #   7 total cpu time :  7994.5 secs   av.it.:  15.2
      thresh= 1.046E-07 alpha_mix =  0.700 |ddv_scf|^2 =  6.239E-15

      iter #   8 total cpu time :  8016.6 secs   av.it.:  15.9
      thresh= 7.899E-09 alpha_mix =  0.700 |ddv_scf|^2 =  1.134E-14

      iter #   9 total cpu time :  8030.4 secs   av.it.:  14.4
      thresh= 1.065E-08 alpha_mix =  0.700 |ddv_scf|^2 =  7.039E-16

      iter #  10 total cpu time :  8046.6 secs   av.it.:  15.2
      thresh= 2.653E-09 alpha_mix =  0.700 |ddv_scf|^2 =  3.268E-17

      iter #  11 total cpu time :  8061.2 secs   av.it.:  16.2
      thresh= 5.717E-10 alpha_mix =  0.700 |ddv_scf|^2 =  1.430E-18

      iter #  12 total cpu time :  8076.6 secs   av.it.:  16.5
      thresh= 1.196E-10 alpha_mix =  0.700 |ddv_scf|^2 =  3.327E-19

      iter #  13 total cpu time :  8093.5 secs   av.it.:  16.4
      thresh= 5.768E-11 alpha_mix =  0.700 |ddv_scf|^2 =  1.652E-19

      iter #  14 total cpu time :  8108.4 secs   av.it.:  15.7
      thresh= 4.065E-11 alpha_mix =  0.700 |ddv_scf|^2 =  4.752E-20

      iter #  15 total cpu time :  8128.3 secs   av.it.:  15.0
      thresh= 2.180E-11 alpha_mix =  0.700 |ddv_scf|^2 =  1.972E-20

      iter #  16 total cpu time :  8140.8 secs   av.it.:  14.6
      thresh= 1.404E-11 alpha_mix =  0.700 |ddv_scf|^2 =  7.772E-22

     End of self-consistent calculation

     Convergence has been achieved 


     Representation #   9 mode #   9

     Self-consistent Calculation

      iter #   1 total cpu time :  8151.2 secs   av.it.:   8.2
      thresh= 1.000E-02 alpha_mix =  0.700 |ddv_scf|^2 =  1.180E-06

      iter #   2 total cpu time :  8164.7 secs   av.it.:  15.9
      thresh= 1.086E-04 alpha_mix =  0.700 |ddv_scf|^2 =  4.360E-06

      iter #   3 total cpu time :  8183.2 secs   av.it.:  14.4
      thresh= 2.088E-04 alpha_mix =  0.700 |ddv_scf|^2 =  5.591E-08

      iter #   4 total cpu time :  8199.6 secs   av.it.:  15.0
      thresh= 2.364E-05 alpha_mix =  0.700 |ddv_scf|^2 =  4.567E-10

      iter #   5 total cpu time :  8218.5 secs   av.it.:  15.0
      thresh= 2.137E-06 alpha_mix =  0.700 |ddv_scf|^2 =  1.697E-11

      iter #   6 total cpu time :  8231.5 secs   av.it.:  15.8
      thresh= 4.119E-07 alpha_mix =  0.700 |ddv_scf|^2 =  3.614E-13

      iter #   7 total cpu time :  8247.8 secs   av.it.:  15.4
      thresh= 6.012E-08 alpha_mix =  0.700 |ddv_scf|^2 =  3.756E-14

      iter #   8 total cpu time :  8261.2 secs   av.it.:  16.0
      thresh= 1.938E-08 alpha_mix =  0.700 |ddv_scf|^2 =  1.090E-13

      iter #   9 total cpu time :  8273.8 secs   av.it.:  14.4
      thresh= 3.302E-08 alpha_mix =  0.700 |ddv_scf|^2 =  2.619E-16

      iter #  10 total cpu time :  8289.4 secs   av.it.:  15.2
      thresh= 1.618E-09 alpha_mix =  0.700 |ddv_scf|^2 =  1.005E-17

      iter #  11 total cpu time :  8302.6 secs   av.it.:  15.2
      thresh= 3.170E-10 alpha_mix =  0.700 |ddv_scf|^2 =  1.994E-18

      iter #  12 total cpu time :  8320.7 secs   av.it.:  15.3
      thresh= 1.412E-10 alpha_mix =  0.700 |ddv_scf|^2 =  3.177E-19

      iter #  13 total cpu time :  8333.8 secs   av.it.:  14.8
      thresh= 5.637E-11 alpha_mix =  0.700 |ddv_scf|^2 =  9.968E-21

      iter #  14 total cpu time :  8347.7 secs   av.it.:  15.8
      thresh= 9.984E-12 alpha_mix =  0.700 |ddv_scf|^2 =  8.508E-22

     End of self-consistent calculation

     Convergence has been achieved 
 
     Number of q in the star =    3
     List of q in the star:
          1   0.000000000   0.288675135   0.000000000
          2   0.250000000  -0.144337567   0.000000000
          3  -0.250000000  -0.144337567   0.000000000
     In addition there is the -q list: 
          1   0.000000000  -0.288675135   0.000000000
          2  -0.250000000   0.144337567   0.000000000
          3   0.250000000   0.144337567   0.000000000

     Diagonalizing the dynamical matrix

     q = (    0.000000000   0.288675135   0.000000000 ) 

 **************************************************************************
     freq (    1) =      -2.213377 [THz] =     -73.830325 [cm-1]
     freq (    2) =       1.433080 [THz] =      47.802398 [cm-1]
     freq (    3) =       1.621406 [THz] =      54.084276 [cm-1]
     freq (    4) =       6.185603 [THz] =     206.329497 [cm-1]
     freq (    5) =       7.751927 [THz] =     258.576443 [cm-1]
     freq (    6) =       8.055875 [THz] =     268.715073 [cm-1]
     freq (    7) =       8.399773 [THz] =     280.186280 [cm-1]
     freq (    8) =      10.305613 [THz] =     343.758248 [cm-1]
     freq (    9) =      11.593278 [THz] =     386.710136 [cm-1]
 **************************************************************************

     Mode symmetry, C_2v (mm2)  point group:

     freq (   1-   1) =        -73.8  [cm-1]   --> A_1  D_1  S_1      
     freq (   2-   2) =         47.8  [cm-1]   --> B_2  D_4  S_4      
     freq (   3-   3) =         54.1  [cm-1]   --> B_1  D_3  S_3      
     freq (   4-   4) =        206.3  [cm-1]   --> B_1  D_3  S_3      
     freq (   5-   5) =        258.6  [cm-1]   --> A_2  D_2  S_2      
     freq (   6-   6) =        268.7  [cm-1]   --> A_1  D_1  S_1      
     freq (   7-   7) =        280.2  [cm-1]   --> B_2  D_4  S_4      
     freq (   8-   8) =        343.8  [cm-1]   --> B_2  D_4  S_4      
     freq (   9-   9) =        386.7  [cm-1]   --> A_1  D_1  S_1      
 
     init_run     :      0.56s CPU      4.63s WALL (       3 calls)
     electrons    :    140.35s CPU    166.07s WALL (       3 calls)

     Called by init_run:
     wfcinit      :      0.00s CPU      0.03s WALL (       3 calls)
     potinit      :      0.04s CPU      4.05s WALL (       3 calls)
     hinit0       :      0.30s CPU      0.30s WALL (       3 calls)

     Called by electrons:
     c_bands      :    140.31s CPU    166.03s WALL (       3 calls)
     v_of_rho     :      0.04s CPU      0.05s WALL (       4 calls)

     Called by c_bands:
     init_us_2    :     19.32s CPU     20.49s WALL (  156807 calls)
     init_us_2:cp :     18.92s CPU     20.12s WALL (  156807 calls)
     cegterg      :    106.18s CPU    108.76s WALL (    2688 calls)

     Called by *egterg:
     cdiaghg      :     16.20s CPU     16.61s WALL (   38682 calls)
     h_psi        :   3655.90s CPU   3781.94s WALL ( 2801826 calls)
     g_psi        :      0.77s CPU      0.79s WALL (   36882 calls)

     Called by h_psi:
     h_psi:calbec :    167.29s CPU    173.22s WALL ( 2801826 calls)
     vloc_psi     :   3335.78s CPU   3450.46s WALL ( 2801826 calls)
     add_vuspsi   :    123.85s CPU    129.29s WALL ( 2801826 calls)

     General routines
     calbec       :    298.87s CPU    310.76s WALL ( 5606854 calls)
     fft          :      3.77s CPU      3.95s WALL (    7186 calls)
     ffts         :      5.70s CPU      5.80s WALL (   13193 calls)
     fftw         :   5287.48s CPU   5418.03s WALL (39143100 calls)
     interpolate  :      0.75s CPU      0.82s WALL (    1079 calls)
     davcio       :     20.84s CPU    587.55s WALL (  708403 calls)
 
     Parallel routines
 
     PHONON       :      1h52m CPU      2h19m WALL

     INITIALIZATION: 
     phq_setup    :      0.13s CPU      0.49s WALL (       4 calls)
     phq_init     :      2.83s CPU      3.01s WALL (       4 calls)
 
     phq_init     :      2.83s CPU      3.01s WALL (       4 calls)
     init_vloc    :      0.23s CPU      0.23s WALL (       4 calls)
     init_us_1    :      0.13s CPU      0.13s WALL (       4 calls)
     init_us_2    :     19.32s CPU     20.49s WALL (  156807 calls)
 
     DYNAMICAL MATRIX:
     dynmat0      :      1.16s CPU      1.23s WALL (       4 calls)
     phqscf       :   6569.33s CPU   8126.81s WALL (       4 calls)
     dynmatrix    :      0.00s CPU      0.02s WALL (       4 calls)
 
     phqscf       :   6569.33s CPU   8126.81s WALL (       4 calls)
     solve_linter :   6564.59s CPU   8101.39s WALL (      33 calls)
     drhodv       :      4.72s CPU      5.14s WALL (      33 calls)
 
     dynmat0      :      1.16s CPU      1.23s WALL (       4 calls)
     dynmat_us    :      1.14s CPU      1.19s WALL (       4 calls)
     d2ionq       :      0.01s CPU      0.02s WALL (       4 calls)
 
     dynmat_us    :      1.14s CPU      1.19s WALL (       4 calls)
 
     phqscf       :   6569.33s CPU   8126.81s WALL (       4 calls)
     solve_linter :   6564.59s CPU   8101.39s WALL (      33 calls)
 
     solve_linter :   6564.59s CPU   8101.39s WALL (      33 calls)
     dvqpsi_us    :     29.28s CPU     30.36s WALL (    8649 calls)
     sth_kernel   :   6318.36s CPU   7027.37s WALL (     506 calls)
     apply_dpot_b :    229.60s CPU    244.24s WALL (  128785 calls)
     ortho        :     15.36s CPU     16.26s WALL (  137434 calls)
     cgsolve      :   4004.98s CPU   4144.20s WALL (  137434 calls)
     incdrhoscf   :   2016.76s CPU   2029.03s WALL (  137434 calls)
     dv_of_drho   :      5.05s CPU      5.25s WALL (     533 calls)
     mix_pot      :     41.89s CPU    544.31s WALL (     506 calls)
     ef_shift     :      0.07s CPU      0.09s WALL (      67 calls)
     ef_shift_wfc :      0.02s CPU      0.03s WALL (       6 calls)
     localdos     :      0.69s CPU      0.71s WALL (       6 calls)
     psymdvscf    :     37.65s CPU     38.36s WALL (     506 calls)
 
     dvqpsi_us    :     29.28s CPU     30.36s WALL (    8649 calls)
     dvqpsi_us_on :      2.12s CPU      2.21s WALL (    8649 calls)
 
     cgsolve      :   4004.98s CPU   4144.20s WALL (  137434 calls)
     ch_psi       :   3917.33s CPU   4052.42s WALL ( 2760456 calls)
 
     ch_psi       :   3917.33s CPU   4052.42s WALL ( 2760456 calls)
     h_psi        :   3655.90s CPU   3781.94s WALL ( 2801826 calls)
     last         :    305.15s CPU    316.00s WALL ( 2760456 calls)
 
     h_psi        :   3655.90s CPU   3781.94s WALL ( 2801826 calls)
     add_vuspsi   :    123.85s CPU    129.29s WALL ( 2801826 calls)
 
     incdrhoscf   :   2016.76s CPU   2029.03s WALL (  137434 calls)
 
 
      General routines
     calbec       :    298.87s CPU    310.76s WALL ( 5606854 calls)
     fft          :      3.77s CPU      3.95s WALL (    7186 calls)
     ffts         :      5.70s CPU      5.80s WALL (   13193 calls)
     fftw         :   5287.48s CPU   5418.03s WALL (39143100 calls)
     davcio       :     20.84s CPU    587.55s WALL (  708403 calls)
     write_rec    :      0.42s CPU    341.56s WALL (     539 calls)
 
 
     PHONON       :      1h52m CPU      2h19m WALL

 
   This run was terminated on:  21:29: 7   7Jun2022            

=------------------------------------------------------------------------------=
   JOB DONE.
=------------------------------------------------------------------------------=
