Module for intel-oneAPI 2021.4 loaded.
 
:: initializing oneAPI environment ...
   3071245: BASH_VERSION = 4.4.20(1)-release
:: advisor -- latest
:: ccl -- latest
:: clck -- latest
:: compiler -- latest
:: dal -- latest
:: debugger -- latest
:: dev-utilities -- latest
:: dnnl -- latest
:: dpcpp-ct -- latest
:: dpl -- latest
:: inspector -- latest
:: intelpython -- latest
:: ipp -- latest
:: ippcp -- latest
:: ipp -- latest
:: itac -- latest
:: LPOT -- latest
:: mkl -- latest
:: modelzoo -- latest
:: mpi -- latest
:: pytorch -- latest
:: tbb -- latest
:: tensorflow -- latest
:: vpl -- latest
:: vtune -- latest
:: oneAPI environment initialized ::
 

     Program PWSCF v.7.0 starts on 27Jun2022 at 17: 5:30 

     This program is part of the open-source Quantum ESPRESSO suite
     for quantum simulation of materials; please cite
         "P. Giannozzi et al., J. Phys.:Condens. Matter 21 395502 (2009);
         "P. Giannozzi et al., J. Phys.:Condens. Matter 29 465901 (2017);
         "P. Giannozzi et al., J. Chem. Phys. 152 154105 (2020);
          URL http://www.quantum-espresso.org", 
     in publications or presentations arising from this work. More details at
     http://www.quantum-espresso.org/quote

     Parallel version (MPI), running on    32 processors

     MPI processes distributed on     2 nodes
     R & G space division:  proc/nbgrp/npool/nimage =      32
     59343 MiB available memory on the printing compute node when the environment starts
 
     Reading input from in_files/silicon_ph_bench_nd_9_n_procs_32_3.scf

     Current dimensions of program PWSCF are:
     Max number of different atomic species (ntypx) = 10
     Max number of k-points (npk) =  40000
     Max angular momentum in pseudopotentials (lmaxx) =  4

     Subspace diagonalization in iterative solution of the eigenvalue problem:
     one sub-group per band group will be used
     scalapack distributed-memory algorithm (size of sub-group:  3*  3 procs)

 
     Parallelization info
     --------------------
     sticks:   dense  smooth     PW     G-vecs:    dense   smooth      PW
     Min          31      31      9                  651      651     107
     Max          32      32     10                  654      654     111
     Sum        1003    1003    301                20875    20875    3479
 
     Using Slab Decomposition
 


     bravais-lattice index     =            2
     lattice parameter (alat)  =      10.1899  a.u.
     unit-cell volume          =     264.5151 (a.u.)^3
     number of atoms/cell      =            2
     number of atomic types    =            1
     number of electrons       =         8.00
     number of Kohn-Sham states=            4
     kinetic-energy cutoff     =      70.0000  Ry
     charge density cutoff     =     280.0000  Ry
     scf convergence threshold =      1.0E-10
     mixing beta               =       0.7000
     number of iterations used =            8  plain     mixing
     Exchange-correlation= SLA  PW   NOGX NOGC
                           (   1   4   0   0   0   0   0)

     celldm(1)=  10.189905  celldm(2)=   0.000000  celldm(3)=   0.000000
     celldm(4)=   0.000000  celldm(5)=   0.000000  celldm(6)=   0.000000

     crystal axes: (cart. coord. in units of alat)
               a(1) = (  -0.500000   0.000000   0.500000 )  
               a(2) = (   0.000000   0.500000   0.500000 )  
               a(3) = (  -0.500000   0.500000   0.000000 )  

     reciprocal axes: (cart. coord. in units 2 pi/alat)
               b(1) = ( -1.000000 -1.000000  1.000000 )  
               b(2) = (  1.000000  1.000000  1.000000 )  
               b(3) = ( -1.000000  1.000000 -1.000000 )  


     PseudoPot. # 1 for Si read from file:
     ./pseudos/Si.nc.UPF
     MD5 check sum: 9e2d726316af3d4752eea8ab0afbb951
     Pseudo is Norm-conserving + core correction, Zval =  4.0
     Generated using ONCVPSP code by D. R. Hamann
     Using radial grid of 1510 points,  6 beta functions with: 
                l(1) =   0
                l(2) =   0
                l(3) =   1
                l(4) =   1
                l(5) =   2
                l(6) =   2

     atomic species   valence    mass     pseudopotential
        Si             4.00    28.08550     Si( 1.00)

     48 Sym. Ops., with inversion, found (24 have fractional translation)



   Cartesian axes

     site n.     atom                  positions (alat units)
         1           Si  tau(   1) = (   0.0000000   0.0000000   0.0000000  )
         2           Si  tau(   2) = (  -0.2500000   0.2500000   0.2500000  )

     number of k points=    28
                       cart. coord. in units 2pi/alat
        k(    1) = (  -0.0833333   0.0833333   0.0833333), wk =   0.0185185
        k(    2) = (  -0.2500000   0.2500000  -0.0833333), wk =   0.0555556
        k(    3) = (  -0.4166667   0.4166667  -0.2500000), wk =   0.0555556
        k(    4) = (   0.4166667  -0.4166667   0.5833333), wk =   0.0555556
        k(    5) = (   0.2500000  -0.2500000   0.4166667), wk =   0.0555556
        k(    6) = (   0.0833333  -0.0833333   0.2500000), wk =   0.0555556
        k(    7) = (  -0.0833333   0.4166667   0.0833333), wk =   0.0555556
        k(    8) = (  -0.2500000   0.5833333  -0.0833333), wk =   0.1111111
        k(    9) = (   0.5833333  -0.2500000   0.7500000), wk =   0.1111111
        k(   10) = (   0.4166667  -0.0833333   0.5833333), wk =   0.1111111
        k(   11) = (   0.2500000   0.0833333   0.4166667), wk =   0.1111111
        k(   12) = (  -0.0833333   0.7500000   0.0833333), wk =   0.0555556
        k(   13) = (   0.7500000  -0.0833333   0.9166667), wk =   0.1111111
        k(   14) = (   0.5833333   0.0833333   0.7500000), wk =   0.1111111
        k(   15) = (   0.4166667   0.2500000   0.5833333), wk =   0.1111111
        k(   16) = (  -0.0833333  -0.9166667   0.0833333), wk =   0.0555556
        k(   17) = (  -0.2500000  -0.7500000  -0.0833333), wk =   0.1111111
        k(   18) = (  -0.0833333  -0.5833333   0.0833333), wk =   0.0555556
        k(   19) = (  -0.2500000   0.2500000   0.2500000), wk =   0.0185185
        k(   20) = (  -0.4166667   0.4166667   0.0833333), wk =   0.0555556
        k(   21) = (   0.4166667  -0.4166667   0.9166667), wk =   0.0555556
        k(   22) = (   0.2500000  -0.2500000   0.7500000), wk =   0.0555556
        k(   23) = (  -0.2500000   0.5833333   0.2500000), wk =   0.0555556
        k(   24) = (   0.5833333  -0.2500000   1.0833333), wk =   0.1111111
        k(   25) = (   0.4166667  -0.0833333   0.9166667), wk =   0.1111111
        k(   26) = (  -0.2500000  -1.0833333   0.2500000), wk =   0.0555556
        k(   27) = (  -0.4166667   0.4166667   0.4166667), wk =   0.0185185
        k(   28) = (   0.4166667  -0.4166667   1.2500000), wk =   0.0555556

     Dense  grid:    20875 G-vectors     FFT dimensions: (  40,  40,  40)

     Estimated max dynamical RAM per process >       2.04 MB

     Estimated total dynamical RAM >      65.42 MB

     Initial potential from superposition of free atoms

     starting charge       7.9989, renormalised to       8.0000
     Starting wfcs are    8 randomized atomic wfcs

     total cpu time spent up to now is        0.4 secs

     Self-consistent Calculation

     iteration #  1     ecut=    70.00 Ry     beta= 0.70
     Davidson diagonalization with overlap
     ethr =  1.00E-02,  avg # of iterations =  2.0

     Threshold (ethr) on eigenvalues was too large:
     Diagonalizing with lowered threshold

     Davidson diagonalization with overlap
     ethr =  6.12E-04,  avg # of iterations =  2.0

     total cpu time spent up to now is        0.9 secs

     total energy              =     -17.04763833 Ry
     estimated scf accuracy    <       0.05795267 Ry

     iteration #  2     ecut=    70.00 Ry     beta= 0.70
     Davidson diagonalization with overlap
     ethr =  7.24E-04,  avg # of iterations =  1.0

     total cpu time spent up to now is        1.1 secs

     total energy              =     -17.04995882 Ry
     estimated scf accuracy    <       0.00249508 Ry

     iteration #  3     ecut=    70.00 Ry     beta= 0.70
     Davidson diagonalization with overlap
     ethr =  3.12E-05,  avg # of iterations =  3.1

     total cpu time spent up to now is        1.4 secs

     total energy              =     -17.05082881 Ry
     estimated scf accuracy    <       0.00009714 Ry

     iteration #  4     ecut=    70.00 Ry     beta= 0.70
     Davidson diagonalization with overlap
     ethr =  1.21E-06,  avg # of iterations =  4.2

     total cpu time spent up to now is        1.8 secs

     total energy              =     -17.05089770 Ry
     estimated scf accuracy    <       0.00000373 Ry

     iteration #  5     ecut=    70.00 Ry     beta= 0.70
     Davidson diagonalization with overlap
     ethr =  4.67E-08,  avg # of iterations =  4.6

     total cpu time spent up to now is        2.2 secs

     total energy              =     -17.05090098 Ry
     estimated scf accuracy    <       0.00000017 Ry

     iteration #  6     ecut=    70.00 Ry     beta= 0.70
     Davidson diagonalization with overlap
     ethr =  2.15E-09,  avg # of iterations =  3.4

     total cpu time spent up to now is        2.5 secs

     total energy              =     -17.05090106 Ry
     estimated scf accuracy    <       0.00000001 Ry

     iteration #  7     ecut=    70.00 Ry     beta= 0.70
     Davidson diagonalization with overlap
     ethr =  1.63E-10,  avg # of iterations =  3.7

     total cpu time spent up to now is        2.9 secs

     End of self-consistent calculation

          k =-0.0833 0.0833 0.0833 (  2667 PWs)   bands (ev):

    -5.7561   5.3866   6.1106   6.1106

          k =-0.2500 0.2500-0.0833 (  2621 PWs)   bands (ev):

    -5.2692   3.2787   4.8359   5.9020

          k =-0.4167 0.4167-0.2500 (  2618 PWs)   bands (ev):

    -4.1491   0.4558   4.3704   5.2525

          k = 0.4167-0.4167 0.5833 (  2604 PWs)   bands (ev):

    -3.4238  -0.7235   4.4440   4.8612

          k = 0.2500-0.2500 0.4167 (  2618 PWs)   bands (ev):

    -4.5725   1.3222   4.9163   4.9543

          k = 0.0833-0.0833 0.2500 (  2643 PWs)   bands (ev):

    -5.5104   4.3092   5.4447   5.6431

          k =-0.0833 0.4167 0.0833 (  2627 PWs)   bands (ev):

    -5.0231   3.1094   4.6844   4.6977

          k =-0.2500 0.5833-0.0833 (  2613 PWs)   bands (ev):

    -4.0918   1.2428   3.3199   4.3008

          k = 0.5833-0.2500 0.7500 (  2616 PWs)   bands (ev):

    -2.9383  -0.5645   2.7090   4.0652

          k = 0.4167-0.0833 0.5833 (  2617 PWs)   bands (ev):

    -3.6856   0.5301   2.6549   4.5685

          k = 0.2500 0.0833 0.4167 (  2624 PWs)   bands (ev):

    -4.7922   2.2460   4.0374   5.2604

          k =-0.0833 0.7500 0.0833 (  2617 PWs)   bands (ev):

    -3.3664   0.4197   3.2861   3.6484

          k = 0.7500-0.0833 0.9167 (  2608 PWs)   bands (ev):

    -2.1400  -0.9430   2.4039   3.2177

          k = 0.5833 0.0833 0.7500 (  2608 PWs)   bands (ev):

    -2.5099  -0.6178   1.9049   3.7798

          k = 0.4167 0.2500 0.5833 (  2622 PWs)   bands (ev):

    -3.5664  -0.1967   3.6417   4.6731

          k =-0.0833-0.9167 0.0833 (  2604 PWs)   bands (ev):

    -2.2385  -0.9535   3.0091   3.4291

          k =-0.2500-0.7500-0.0833 (  2615 PWs)   bands (ev):

    -3.1914   0.1893   2.7413   3.5675

          k =-0.0833-0.5833 0.0833 (  2620 PWs)   bands (ev):

    -4.3033   1.8031   3.8480   4.0788

          k =-0.2500 0.2500 0.2500 (  2632 PWs)   bands (ev):

    -5.0343   2.2731   5.4857   5.4857

          k =-0.4167 0.4167 0.0833 (  2620 PWs)   bands (ev):

    -4.3392   1.3430   3.2813   5.3165

          k = 0.4167-0.4167 0.9167 (  2613 PWs)   bands (ev):

    -3.1274  -0.1140   2.1362   4.5076

          k = 0.2500-0.2500 0.7500 (  2618 PWs)   bands (ev):

    -3.0761  -0.1941   2.6355   4.0115

          k =-0.2500 0.5833 0.2500 (  2613 PWs)   bands (ev):

    -3.9042   0.5133   3.7736   4.3933

          k = 0.5833-0.2500 1.0833 (  2619 PWs)   bands (ev):

    -2.8765  -0.2149   2.2381   3.5572

          k = 0.4167-0.0833 0.9167 (  2613 PWs)   bands (ev):

    -2.0245  -0.9506   2.0592   2.8637

          k =-0.2500-1.0833 0.2500 (  2605 PWs)   bands (ev):

    -2.2385  -0.8649   1.9289   3.8127

          k =-0.4167 0.4167 0.4167 (  2602 PWs)   bands (ev):

    -3.8074  -0.3119   5.0941   5.0941

          k = 0.4167-0.4167 1.2500 (  2605 PWs)   bands (ev):

    -3.1840  -0.6106   3.2018   4.6388

     highest occupied level (ev):     6.1106

!    total energy              =     -17.05090107 Ry
     estimated scf accuracy    <          6.8E-11 Ry

     The total energy is the sum of the following terms:
     one-electron contribution =       5.01080664 Ry
     hartree contribution      =       1.07710344 Ry
     xc contribution           =      -6.22230986 Ry
     ewald contribution        =     -16.91650128 Ry

     convergence has been achieved in   7 iterations

     Forces acting on atoms (cartesian axes, Ry/au):

     atom    1 type  1   force =     0.00000000    0.00000000    0.00000000
     atom    2 type  1   force =    -0.00000000   -0.00000000   -0.00000000

     Total force =     0.000000     Total SCF correction =     0.000000

     Writing all to output data dir /fastscratch/tsievers/QE_TMP_DIR/silicon_ph_bench_nd_9_n_procs_32_3.save/
 
     init_run     :      0.25s CPU      0.32s WALL (       1 calls)
     electrons    :      2.42s CPU      2.49s WALL (       1 calls)
     forces       :      0.01s CPU      0.01s WALL (       1 calls)

     Called by init_run:
     wfcinit      :      0.21s CPU      0.25s WALL (       1 calls)
     potinit      :      0.00s CPU      0.01s WALL (       1 calls)
     hinit0       :      0.03s CPU      0.06s WALL (       1 calls)

     Called by electrons:
     c_bands      :      2.21s CPU      2.25s WALL (       8 calls)
     sum_band     :      0.20s CPU      0.20s WALL (       8 calls)
     v_of_rho     :      0.00s CPU      0.00s WALL (       8 calls)
     mix_rho      :      0.00s CPU      0.00s WALL (       8 calls)

     Called by c_bands:
     init_us_2    :      0.02s CPU      0.02s WALL (     504 calls)
     init_us_2:cp :      0.02s CPU      0.02s WALL (     504 calls)
     cegterg      :      2.14s CPU      2.18s WALL (     224 calls)

     Called by *egterg:
     cdiaghg      :      0.57s CPU      0.58s WALL (     868 calls)
     h_psi        :      1.42s CPU      1.44s WALL (     924 calls)
     g_psi        :      0.00s CPU      0.00s WALL (     672 calls)

     Called by h_psi:
     h_psi:calbec :      0.05s CPU      0.05s WALL (     924 calls)
     vloc_psi     :      1.34s CPU      1.37s WALL (     924 calls)
     add_vuspsi   :      0.02s CPU      0.02s WALL (     924 calls)

     General routines
     calbec       :      0.05s CPU      0.06s WALL (    1036 calls)
     fft          :      0.03s CPU      0.06s WALL (      28 calls)
     ffts         :      0.00s CPU      0.00s WALL (       8 calls)
     fftw         :      1.49s CPU      1.52s WALL (    7124 calls)
 
     Parallel routines
 
     PWSCF        :      2.78s CPU      3.38s WALL

 
   This run was terminated on:  17: 5:33  27Jun2022            

=------------------------------------------------------------------------------=
   JOB DONE.
=------------------------------------------------------------------------------=

     Program PHONON v.7.0 starts on 27Jun2022 at 17: 5:37 

     This program is part of the open-source Quantum ESPRESSO suite
     for quantum simulation of materials; please cite
         "P. Giannozzi et al., J. Phys.:Condens. Matter 21 395502 (2009);
         "P. Giannozzi et al., J. Phys.:Condens. Matter 29 465901 (2017);
         "P. Giannozzi et al., J. Chem. Phys. 152 154105 (2020);
          URL http://www.quantum-espresso.org", 
     in publications or presentations arising from this work. More details at
     http://www.quantum-espresso.org/quote

     Parallel version (MPI), running on    32 processors

     MPI processes distributed on     2 nodes
     R & G space division:  proc/nbgrp/npool/nimage =      32
     59335 MiB available memory on the printing compute node when the environment starts
 
     Reading input from in_files/silicon_ph_bench_nd_9_n_procs_32_3.ph
      Title line not specified: using 'default'.

     Reading xml data from directory:

     /fastscratch/tsievers/QE_TMP_DIR/silicon_ph_bench_nd_9_n_procs_32_3.save/

     IMPORTANT: XC functional enforced from input :
     Exchange-correlation= PW
                           (   1   4   0   0   0   0   0)
     Any further DFT definition will be discarded
     Please, verify this is what you really want

 
     Parallelization info
     --------------------
     sticks:   dense  smooth     PW     G-vecs:    dense   smooth      PW
     Min          31      31      9                  651      651     107
     Max          32      32     10                  654      654     111
     Sum        1003    1003    301                20875    20875    3479
 
     Using Slab Decomposition
 
     Reading collected, re-writing distributed wavefunctions


     Dynamical matrices for ( 6, 6, 6)  uniform grid of q-points
     (  16 q-points):
       N         xq(1)         xq(2)         xq(3) 
       1   0.000000000   0.000000000   0.000000000
       2  -0.166666667   0.166666667  -0.166666667
       3  -0.333333333   0.333333333  -0.333333333
       4   0.500000000  -0.500000000   0.500000000
       5   0.000000000   0.333333333   0.000000000
       6  -0.166666667   0.500000000  -0.166666667
       7   0.666666667  -0.333333333   0.666666667
       8   0.500000000  -0.166666667   0.500000000
       9   0.333333333   0.000000000   0.333333333
      10   0.000000000   0.666666667   0.000000000
      11   0.833333333  -0.166666667   0.833333333
      12   0.666666667  -0.000000000   0.666666667
      13   0.000000000  -1.000000000   0.000000000
      14   0.666666667  -0.333333333   1.000000000
      15   0.500000000  -0.166666667   0.833333333
      16  -0.333333333  -1.000000000   0.000000000

     Calculation of q =    0.0000000   0.0000000   0.0000000

     default                                                                    

     bravais-lattice index     =            2
     lattice parameter (alat)  =      10.1899  a.u.
     unit-cell volume          =     264.5151 (a.u.)^3
     number of atoms/cell      =            2
     number of atomic types    =            1
     kinetic-energy cut-off    =      70.0000  Ry
     charge density cut-off    =     280.0000  Ry
     convergence threshold     =      1.0E-15
     beta                      =       0.7000
     number of iterations used =            4
     Exchange-correlation= PW
                           (   1   4   0   0   0   0   0)


     celldm(1)=   10.18990  celldm(2)=    0.00000  celldm(3)=    0.00000
     celldm(4)=    0.00000  celldm(5)=    0.00000  celldm(6)=    0.00000

     crystal axes: (cart. coord. in units of alat)
               a(1) = ( -0.5000  0.0000  0.5000 )  
               a(2) = (  0.0000  0.5000  0.5000 )  
               a(3) = ( -0.5000  0.5000  0.0000 )  

     reciprocal axes: (cart. coord. in units 2 pi/alat)
               b(1) = ( -1.0000 -1.0000  1.0000 )  
               b(2) = (  1.0000  1.0000  1.0000 )  
               b(3) = ( -1.0000  1.0000 -1.0000 )  


     Atoms inside the unit cell: 

     Cartesian axes

     site n.  atom      mass           positions (alat units)
        1     Si  28.0855   tau(    1) = (    0.00000    0.00000    0.00000  )
        2     Si  28.0855   tau(    2) = (   -0.25000    0.25000    0.25000  )

     Computing dynamical matrix for 
                    q = (   0.0000000   0.0000000   0.0000000 )
 
     49 Sym.Ops. (with q -> -q+G )


     G cutoff =  736.4420  (    652 G-vectors)     FFT grid: ( 40, 40, 40)
     number of k points=    28

     PseudoPot. # 1 for Si read from file:
     ./pseudos/Si.nc.UPF
     MD5 check sum: 9e2d726316af3d4752eea8ab0afbb951
     Pseudo is Norm-conserving + core correction, Zval =  4.0
     Generated using ONCVPSP code by D. R. Hamann
     Using radial grid of 1510 points,  6 beta functions with: 
                l(1) =   0
                l(2) =   0
                l(3) =   1
                l(4) =   1
                l(5) =   2
                l(6) =   2

     Mode symmetry, O_h (m-3m)  point group:


     Electric field:
     Dielectric constant
     Born effective charges in two ways 


     Atomic displacements:
     There are    2 irreducible representations

     Representation     1      3 modes -  To be done

     Representation     2      3 modes -  To be done



     Alpha used in Ewald sum =   2.8000
     PHONON       :      0.27s CPU      0.59s WALL


     Electric Fields Calculation

      iter #   1 total cpu time :     5.3 secs   av.it.:   6.5
      thresh= 1.000E-02 alpha_mix =  0.700 |ddv_scf|^2 =  4.494E-08

      iter #   2 total cpu time :     7.7 secs   av.it.:  12.2
      thresh= 2.120E-05 alpha_mix =  0.700 |ddv_scf|^2 =  1.926E-09

      iter #   3 total cpu time :    10.9 secs   av.it.:  12.0
      thresh= 4.389E-06 alpha_mix =  0.700 |ddv_scf|^2 =  2.171E-11

      iter #   4 total cpu time :    13.8 secs   av.it.:  12.3
      thresh= 4.660E-07 alpha_mix =  0.700 |ddv_scf|^2 =  1.288E-13

      iter #   5 total cpu time :    18.6 secs   av.it.:  11.4
      thresh= 3.589E-08 alpha_mix =  0.700 |ddv_scf|^2 =  4.731E-17

     End of electric fields calculation

          Dielectric constant in cartesian axis 

          (      13.312111711       0.000000000       0.000000000 )
          (       0.000000000      13.312111711       0.000000000 )
          (      -0.000000000      -0.000000000      13.312111711 )

          Effective charges (d Force / dE) in cartesian axis without acoustic sum rule applied (asr)

           atom      1   Si Mean Z*:       -0.00677
      Ex  (       -0.00677        0.00000        0.00000 )
      Ey  (        0.00000       -0.00677       -0.00000 )
      Ez  (       -0.00000       -0.00000       -0.00677 )
           atom      2   Si Mean Z*:       -0.00677
      Ex  (       -0.00677        0.00000        0.00000 )
      Ey  (        0.00000       -0.00677       -0.00000 )
      Ez  (        0.00000       -0.00000       -0.00677 )

          Effective charges Sum: Mean:       -0.01354
             -0.01354        0.00000        0.00000
              0.00000       -0.01354       -0.00000
              0.00000       -0.00000       -0.01354

          Effective charges (d Force / dE) in cartesian axis with asr applied: 
           atom      1   Si Mean Z*:       -0.00000
      E*x (       -0.00000       -0.00000        0.00000 )
      E*y (       -0.00000       -0.00000        0.00000 )
      E*z (       -0.00000        0.00000       -0.00000 )
           atom      2   Si Mean Z*:        0.00000
      E*x (        0.00000        0.00000       -0.00000 )
      E*y (        0.00000        0.00000       -0.00000 )
      E*z (        0.00000       -0.00000        0.00000 )


     Representation #   1 modes #   1   2   3

     Self-consistent Calculation

      iter #   1 total cpu time :    21.3 secs   av.it.:   5.8
      thresh= 1.000E-02 alpha_mix =  0.700 |ddv_scf|^2 =  6.479E-09

      iter #   2 total cpu time :    24.0 secs   av.it.:  12.1
      thresh= 8.049E-06 alpha_mix =  0.700 |ddv_scf|^2 =  1.456E-10

      iter #   3 total cpu time :    27.7 secs   av.it.:  12.1
      thresh= 1.207E-06 alpha_mix =  0.700 |ddv_scf|^2 =  5.435E-12

      iter #   4 total cpu time :    30.3 secs   av.it.:  11.9
      thresh= 2.331E-07 alpha_mix =  0.700 |ddv_scf|^2 =  1.760E-14

      iter #   5 total cpu time :    32.8 secs   av.it.:  12.2
      thresh= 1.327E-08 alpha_mix =  0.700 |ddv_scf|^2 =  8.178E-17

     End of self-consistent calculation

     Convergence has been achieved 


     Representation #   2 modes #   4   5   6

     Self-consistent Calculation

      iter #   1 total cpu time :    34.5 secs   av.it.:   6.0
      thresh= 1.000E-02 alpha_mix =  0.700 |ddv_scf|^2 =  4.676E-09

      iter #   2 total cpu time :    37.3 secs   av.it.:  12.4
      thresh= 6.838E-06 alpha_mix =  0.700 |ddv_scf|^2 =  1.682E-10

      iter #   3 total cpu time :    39.9 secs   av.it.:  12.3
      thresh= 1.297E-06 alpha_mix =  0.700 |ddv_scf|^2 =  7.655E-12

      iter #   4 total cpu time :    43.5 secs   av.it.:  12.2
      thresh= 2.767E-07 alpha_mix =  0.700 |ddv_scf|^2 =  1.370E-14

      iter #   5 total cpu time :    47.7 secs   av.it.:  12.3
      thresh= 1.171E-08 alpha_mix =  0.700 |ddv_scf|^2 =  3.668E-17

     End of self-consistent calculation

     Convergence has been achieved 
 
     Number of q in the star =    1
     List of q in the star:
          1   0.000000000   0.000000000   0.000000000

          Dielectric constant in cartesian axis 

          (      13.312111711       0.000000000       0.000000000 )
          (       0.000000000      13.312111711       0.000000000 )
          (      -0.000000000      -0.000000000      13.312111711 )

          Effective charges (d Force / dE) in cartesian axis without acoustic sum rule applied (asr)

           atom      1   Si Mean Z*:       -0.00677
      Ex  (       -0.00677        0.00000        0.00000 )
      Ey  (        0.00000       -0.00677       -0.00000 )
      Ez  (       -0.00000       -0.00000       -0.00677 )
           atom      2   Si Mean Z*:       -0.00677
      Ex  (       -0.00677        0.00000        0.00000 )
      Ey  (        0.00000       -0.00677       -0.00000 )
      Ez  (        0.00000       -0.00000       -0.00677 )

          Effective charges Sum: Mean:       -0.01354
             -0.01354        0.00000        0.00000
              0.00000       -0.01354       -0.00000
              0.00000       -0.00000       -0.01354

          Effective charges (d Force / dE) in cartesian axis with asr applied: 
           atom      1   Si Mean Z*:       -0.00000
      E*x (       -0.00000       -0.00000        0.00000 )
      E*y (       -0.00000       -0.00000        0.00000 )
      E*z (       -0.00000        0.00000       -0.00000 )
           atom      2   Si Mean Z*:        0.00000
      E*x (        0.00000        0.00000       -0.00000 )
      E*y (        0.00000        0.00000       -0.00000 )
      E*z (        0.00000       -0.00000        0.00000 )

          Effective charges (d P / du) in cartesian axis 

           atom      1   Si 
      Px  (       -0.00684       -0.00000        0.00000 )
      Py  (        0.00000       -0.00684       -0.00000 )
      Pz  (       -0.00000       -0.00000       -0.00684 )
           atom      2   Si 
      Px  (       -0.00684        0.00000        0.00000 )
      Py  (        0.00000       -0.00684        0.00000 )
      Pz  (       -0.00000       -0.00000       -0.00684 )

     Diagonalizing the dynamical matrix

     q = (    0.000000000   0.000000000   0.000000000 ) 

 **************************************************************************
     freq (    1) =      -0.114381 [THz] =      -3.815337 [cm-1]
     freq (    2) =      -0.114381 [THz] =      -3.815337 [cm-1]
     freq (    3) =      -0.114381 [THz] =      -3.815337 [cm-1]
     freq (    4) =      15.412090 [THz] =     514.091974 [cm-1]
     freq (    5) =      15.412090 [THz] =     514.091974 [cm-1]
     freq (    6) =      15.412090 [THz] =     514.091974 [cm-1]
 **************************************************************************

     Mode symmetry, O_h (m-3m)  point group:

     freq (   1-   3) =         -3.8  [cm-1]   --> T_1u G_15  G_4- I  
     freq (   4-   6) =        514.1  [cm-1]   --> T_2g G_25' G_5+ R  

     Calculation of q =   -0.1666667   0.1666667  -0.1666667

     Subspace diagonalization in iterative solution of the eigenvalue problem:
     one sub-group per band group will be used
     scalapack distributed-memory algorithm (size of sub-group:  3*  3 procs)

 
     Parallelization info
     --------------------
     sticks:   dense  smooth     PW     G-vecs:    dense   smooth      PW
     Min          31      31      9                  651      651     113
     Max          32      32     10                  654      654     117
     Sum        1003    1003    313                20875    20875    3695
 
     Using Slab Decomposition
 

     Title: 
     default                                                                    


     bravais-lattice index     =            2
     lattice parameter (alat)  =      10.1899  a.u.
     unit-cell volume          =     264.5151 (a.u.)^3
     number of atoms/cell      =            2
     number of atomic types    =            1
     number of electrons       =         8.00
     number of Kohn-Sham states=            4
     kinetic-energy cutoff     =      70.0000  Ry
     charge density cutoff     =     280.0000  Ry
     Exchange-correlation= PW
                           (   1   4   0   0   0   0   0)

     celldm(1)=  10.189905  celldm(2)=   0.000000  celldm(3)=   0.000000
     celldm(4)=   0.000000  celldm(5)=   0.000000  celldm(6)=   0.000000

     crystal axes: (cart. coord. in units of alat)
               a(1) = (  -0.500000   0.000000   0.500000 )  
               a(2) = (   0.000000   0.500000   0.500000 )  
               a(3) = (  -0.500000   0.500000   0.000000 )  

     reciprocal axes: (cart. coord. in units 2 pi/alat)
               b(1) = ( -1.000000 -1.000000  1.000000 )  
               b(2) = (  1.000000  1.000000  1.000000 )  
               b(3) = ( -1.000000  1.000000 -1.000000 )  


     PseudoPot. # 1 for Si read from file:
     ./pseudos/Si.nc.UPF
     MD5 check sum: 9e2d726316af3d4752eea8ab0afbb951
     Pseudo is Norm-conserving + core correction, Zval =  4.0
     Generated using ONCVPSP code by D. R. Hamann
     Using radial grid of 1510 points,  6 beta functions with: 
                l(1) =   0
                l(2) =   0
                l(3) =   1
                l(4) =   1
                l(5) =   2
                l(6) =   2

     atomic species   valence    mass     pseudopotential
        Si             4.00    28.08550     Si( 1.00)

     48 Sym. Ops., with inversion, found



   Cartesian axes

     site n.     atom                  positions (alat units)
         1           Si  tau(   1) = (   0.0000000   0.0000000   0.0000000  )
         2           Si  tau(   2) = (  -0.2500000   0.2500000   0.2500000  )

     number of k points=   364

     Number of k-points >= 100: set verbosity='high' to print them.

     Dense  grid:    20875 G-vectors     FFT dimensions: (  40,  40,  40)

     Estimated max dynamical RAM per process >       1.75 MB

     Estimated total dynamical RAM >      55.97 MB

     The potential is recalculated from file :
     /fastscratch/tsievers/QE_TMP_DIR/_ph0/silicon_ph_bench_nd_9_n_procs_32_3.save/charge-density

     Starting wfcs are    8 atomic wfcs

     Band Structure Calculation
     Davidson diagonalization with overlap

     ethr =  1.25E-10,  avg # of iterations = 12.9

     total cpu time spent up to now is       15.9 secs

     End of band structure calculation

     Number of k-points >= 100: set verbosity='high' to print the bands.

     highest occupied level (ev):     6.1106

     Writing config to output data dir /fastscratch/tsievers/QE_TMP_DIR/_ph0/silicon_ph_bench_nd_9_n_procs_32_3.save/

     default                                                                    

     bravais-lattice index     =            2
     lattice parameter (alat)  =      10.1899  a.u.
     unit-cell volume          =     264.5151 (a.u.)^3
     number of atoms/cell      =            2
     number of atomic types    =            1
     kinetic-energy cut-off    =      70.0000  Ry
     charge density cut-off    =     280.0000  Ry
     convergence threshold     =      1.0E-15
     beta                      =       0.7000
     number of iterations used =            4
     Exchange-correlation= PW
                           (   1   4   0   0   0   0   0)


     celldm(1)=   10.18990  celldm(2)=    0.00000  celldm(3)=    0.00000
     celldm(4)=    0.00000  celldm(5)=    0.00000  celldm(6)=    0.00000

     crystal axes: (cart. coord. in units of alat)
               a(1) = ( -0.5000  0.0000  0.5000 )  
               a(2) = (  0.0000  0.5000  0.5000 )  
               a(3) = ( -0.5000  0.5000  0.0000 )  

     reciprocal axes: (cart. coord. in units 2 pi/alat)
               b(1) = ( -1.0000 -1.0000  1.0000 )  
               b(2) = (  1.0000  1.0000  1.0000 )  
               b(3) = ( -1.0000  1.0000 -1.0000 )  


     Atoms inside the unit cell: 

     Cartesian axes

     site n.  atom      mass           positions (alat units)
        1     Si  28.0855   tau(    1) = (    0.00000    0.00000    0.00000  )
        2     Si  28.0855   tau(    2) = (   -0.25000    0.25000    0.25000  )

     Computing dynamical matrix for 
                    q = (  -0.1666667   0.1666667  -0.1666667 )
 
      6 Sym.Ops. (no q -> -q+G )


     G cutoff =  736.4420  (    652 G-vectors)     FFT grid: ( 40, 40, 40)
     number of k points=   364

     PseudoPot. # 1 for Si read from file:
     ./pseudos/Si.nc.UPF
     MD5 check sum: 9e2d726316af3d4752eea8ab0afbb951
     Pseudo is Norm-conserving + core correction, Zval =  4.0
     Generated using ONCVPSP code by D. R. Hamann
     Using radial grid of 1510 points,  6 beta functions with: 
                l(1) =   0
                l(2) =   0
                l(3) =   1
                l(4) =   1
                l(5) =   2
                l(6) =   2

     Mode symmetry, C_3v (3m)   point group:


     Atomic displacements:
     There are    4 irreducible representations

     Representation     1      1 modes -  To be done

     Representation     2      1 modes -  To be done

     Representation     3      2 modes -  To be done

     Representation     4      2 modes -  To be done



     Alpha used in Ewald sum =   2.8000
     PHONON       :     55.00s CPU   1m 7.04s WALL



     Representation #   1 mode #   1

     Self-consistent Calculation

      iter #   1 total cpu time :    70.1 secs   av.it.:   6.6
      thresh= 1.000E-02 alpha_mix =  0.700 |ddv_scf|^2 =  6.062E-04

      iter #   2 total cpu time :    74.0 secs   av.it.:   9.3
      thresh= 2.462E-03 alpha_mix =  0.700 |ddv_scf|^2 =  1.986E-02

      iter #   3 total cpu time :    77.4 secs   av.it.:   7.7
      thresh= 1.000E-02 alpha_mix =  0.700 |ddv_scf|^2 =  1.613E-07

      iter #   4 total cpu time :    83.0 secs   av.it.:   9.5
      thresh= 4.017E-05 alpha_mix =  0.700 |ddv_scf|^2 =  5.295E-09

      iter #   5 total cpu time :    87.3 secs   av.it.:  10.0
      thresh= 7.276E-06 alpha_mix =  0.700 |ddv_scf|^2 =  1.511E-10

      iter #   6 total cpu time :    92.3 secs   av.it.:   9.5
      thresh= 1.229E-06 alpha_mix =  0.700 |ddv_scf|^2 =  6.566E-11

      iter #   7 total cpu time :    95.9 secs   av.it.:   8.4
      thresh= 8.103E-07 alpha_mix =  0.700 |ddv_scf|^2 =  6.948E-11

      iter #   8 total cpu time :   100.1 secs   av.it.:   8.4
      thresh= 8.335E-07 alpha_mix =  0.700 |ddv_scf|^2 =  2.851E-13

      iter #   9 total cpu time :   103.9 secs   av.it.:   8.7
      thresh= 5.340E-08 alpha_mix =  0.700 |ddv_scf|^2 =  6.103E-15

      iter #  10 total cpu time :   111.5 secs   av.it.:   9.1
      thresh= 7.812E-09 alpha_mix =  0.700 |ddv_scf|^2 =  7.618E-16

     End of self-consistent calculation

     Convergence has been achieved 


     Representation #   2 mode #   2

     Self-consistent Calculation

      iter #   1 total cpu time :   117.9 secs   av.it.:   6.6
      thresh= 1.000E-02 alpha_mix =  0.700 |ddv_scf|^2 =  6.062E-04

      iter #   2 total cpu time :   123.7 secs   av.it.:   9.3
      thresh= 2.462E-03 alpha_mix =  0.700 |ddv_scf|^2 =  1.986E-02

      iter #   3 total cpu time :   127.4 secs   av.it.:   7.7
      thresh= 1.000E-02 alpha_mix =  0.700 |ddv_scf|^2 =  1.613E-07

      iter #   4 total cpu time :   131.8 secs   av.it.:   9.5
      thresh= 4.017E-05 alpha_mix =  0.700 |ddv_scf|^2 =  5.295E-09

      iter #   5 total cpu time :   135.9 secs   av.it.:  10.0
      thresh= 7.276E-06 alpha_mix =  0.700 |ddv_scf|^2 =  1.511E-10

      iter #   6 total cpu time :   140.4 secs   av.it.:   9.5
      thresh= 1.229E-06 alpha_mix =  0.700 |ddv_scf|^2 =  6.565E-11

      iter #   7 total cpu time :   148.5 secs   av.it.:   8.4
      thresh= 8.102E-07 alpha_mix =  0.700 |ddv_scf|^2 =  6.949E-11

      iter #   8 total cpu time :   152.3 secs   av.it.:   8.4
      thresh= 8.336E-07 alpha_mix =  0.700 |ddv_scf|^2 =  2.851E-13

      iter #   9 total cpu time :   156.4 secs   av.it.:   8.8
      thresh= 5.340E-08 alpha_mix =  0.700 |ddv_scf|^2 =  6.103E-15

      iter #  10 total cpu time :   161.6 secs   av.it.:   9.1
      thresh= 7.812E-09 alpha_mix =  0.700 |ddv_scf|^2 =  7.619E-16

     End of self-consistent calculation

     Convergence has been achieved 


     Representation #   3 modes #   3   4

     Self-consistent Calculation

      iter #   1 total cpu time :   167.6 secs   av.it.:   6.1
      thresh= 1.000E-02 alpha_mix =  0.700 |ddv_scf|^2 =  1.581E-08

      iter #   2 total cpu time :   179.0 secs   av.it.:  11.9
      thresh= 1.257E-05 alpha_mix =  0.700 |ddv_scf|^2 =  7.036E-10

      iter #   3 total cpu time :   189.6 secs   av.it.:  11.7
      thresh= 2.653E-06 alpha_mix =  0.700 |ddv_scf|^2 =  1.837E-11

      iter #   4 total cpu time :   200.8 secs   av.it.:  11.8
      thresh= 4.287E-07 alpha_mix =  0.700 |ddv_scf|^2 =  2.120E-13

      iter #   5 total cpu time :   213.1 secs   av.it.:  11.8
      thresh= 4.604E-08 alpha_mix =  0.700 |ddv_scf|^2 =  4.499E-15

      iter #   6 total cpu time :   223.2 secs   av.it.:  12.1
      thresh= 6.708E-09 alpha_mix =  0.700 |ddv_scf|^2 =  2.044E-17

     End of self-consistent calculation

     Convergence has been achieved 


     Representation #   4 modes #   5   6

     Self-consistent Calculation

      iter #   1 total cpu time :   231.6 secs   av.it.:   6.0
      thresh= 1.000E-02 alpha_mix =  0.700 |ddv_scf|^2 =  1.581E-08

      iter #   2 total cpu time :   243.4 secs   av.it.:  11.9
      thresh= 1.258E-05 alpha_mix =  0.700 |ddv_scf|^2 =  7.038E-10

      iter #   3 total cpu time :   255.4 secs   av.it.:  11.7
      thresh= 2.653E-06 alpha_mix =  0.700 |ddv_scf|^2 =  1.837E-11

      iter #   4 total cpu time :   265.7 secs   av.it.:  11.8
      thresh= 4.287E-07 alpha_mix =  0.700 |ddv_scf|^2 =  2.121E-13

      iter #   5 total cpu time :   277.6 secs   av.it.:  11.8
      thresh= 4.605E-08 alpha_mix =  0.700 |ddv_scf|^2 =  4.505E-15

      iter #   6 total cpu time :   288.2 secs   av.it.:  12.1
      thresh= 6.712E-09 alpha_mix =  0.700 |ddv_scf|^2 =  2.043E-17

     End of self-consistent calculation

     Convergence has been achieved 
 
     Number of q in the star =    8
     List of q in the star:
          1  -0.166666667   0.166666667  -0.166666667
          2   0.166666667   0.166666667   0.166666667
          3  -0.166666667  -0.166666667  -0.166666667
          4   0.166666667  -0.166666667   0.166666667
          5   0.166666667  -0.166666667  -0.166666667
          6   0.166666667   0.166666667  -0.166666667
          7  -0.166666667  -0.166666667   0.166666667
          8  -0.166666667   0.166666667   0.166666667

     Diagonalizing the dynamical matrix

     q = (   -0.166666667   0.166666667  -0.166666667 ) 

 **************************************************************************
     freq (    1) =       2.202631 [THz] =      73.471877 [cm-1]
     freq (    2) =       2.202631 [THz] =      73.471877 [cm-1]
     freq (    3) =       4.748448 [THz] =     158.391170 [cm-1]
     freq (    4) =      15.023973 [THz] =     501.145812 [cm-1]
     freq (    5) =      15.065870 [THz] =     502.543335 [cm-1]
     freq (    6) =      15.065870 [THz] =     502.543335 [cm-1]
 **************************************************************************

     Mode symmetry, C_3v (3m)   point group:

     freq (   1-   2) =         73.5  [cm-1]   --> E    L_3           
     freq (   3-   3) =        158.4  [cm-1]   --> A_1  L_1           
     freq (   4-   4) =        501.1  [cm-1]   --> A_1  L_1           
     freq (   5-   6) =        502.5  [cm-1]   --> E    L_3           

     Calculation of q =   -0.3333333   0.3333333  -0.3333333
 
     Parallelization info
     --------------------
     sticks:   dense  smooth     PW     G-vecs:    dense   smooth      PW
     Min          31      31      9                  651      651     116
     Max          32      32     10                  654      654     122
     Sum        1003    1003    313                20875    20875    3839
 
     Using Slab Decomposition
 

     Title: 
     default                                                                    


     bravais-lattice index     =            2
     lattice parameter (alat)  =      10.1899  a.u.
     unit-cell volume          =     264.5151 (a.u.)^3
     number of atoms/cell      =            2
     number of atomic types    =            1
     number of electrons       =         8.00
     number of Kohn-Sham states=            4
     kinetic-energy cutoff     =      70.0000  Ry
     charge density cutoff     =     280.0000  Ry
     Exchange-correlation= PW
                           (   1   4   0   0   0   0   0)

     celldm(1)=  10.189905  celldm(2)=   0.000000  celldm(3)=   0.000000
     celldm(4)=   0.000000  celldm(5)=   0.000000  celldm(6)=   0.000000

     crystal axes: (cart. coord. in units of alat)
               a(1) = (  -0.500000   0.000000   0.500000 )  
               a(2) = (   0.000000   0.500000   0.500000 )  
               a(3) = (  -0.500000   0.500000   0.000000 )  

     reciprocal axes: (cart. coord. in units 2 pi/alat)
               b(1) = ( -1.000000 -1.000000  1.000000 )  
               b(2) = (  1.000000  1.000000  1.000000 )  
               b(3) = ( -1.000000  1.000000 -1.000000 )  


     PseudoPot. # 1 for Si read from file:
     ./pseudos/Si.nc.UPF
     MD5 check sum: 9e2d726316af3d4752eea8ab0afbb951
     Pseudo is Norm-conserving + core correction, Zval =  4.0
     Generated using ONCVPSP code by D. R. Hamann
     Using radial grid of 1510 points,  6 beta functions with: 
                l(1) =   0
                l(2) =   0
                l(3) =   1
                l(4) =   1
                l(5) =   2
                l(6) =   2

     atomic species   valence    mass     pseudopotential
        Si             4.00    28.08550     Si( 1.00)

     48 Sym. Ops., with inversion, found



   Cartesian axes

     site n.     atom                  positions (alat units)
         1           Si  tau(   1) = (   0.0000000   0.0000000   0.0000000  )
         2           Si  tau(   2) = (  -0.2500000   0.2500000   0.2500000  )

     number of k points=   364

     Number of k-points >= 100: set verbosity='high' to print them.

     Dense  grid:    20875 G-vectors     FFT dimensions: (  40,  40,  40)

     Estimated max dynamical RAM per process >       1.76 MB

     Estimated total dynamical RAM >      56.41 MB

     The potential is recalculated from file :
     /fastscratch/tsievers/QE_TMP_DIR/_ph0/silicon_ph_bench_nd_9_n_procs_32_3.save/charge-density

     Starting wfcs are    8 atomic wfcs

     Band Structure Calculation
     Davidson diagonalization with overlap

     ethr =  1.25E-10,  avg # of iterations = 12.9

     total cpu time spent up to now is       32.2 secs

     End of band structure calculation

     Number of k-points >= 100: set verbosity='high' to print the bands.

     highest occupied level (ev):     6.1106

     Writing config to output data dir /fastscratch/tsievers/QE_TMP_DIR/_ph0/silicon_ph_bench_nd_9_n_procs_32_3.save/

     default                                                                    

     bravais-lattice index     =            2
     lattice parameter (alat)  =      10.1899  a.u.
     unit-cell volume          =     264.5151 (a.u.)^3
     number of atoms/cell      =            2
     number of atomic types    =            1
     kinetic-energy cut-off    =      70.0000  Ry
     charge density cut-off    =     280.0000  Ry
     convergence threshold     =      1.0E-15
     beta                      =       0.7000
     number of iterations used =            4
     Exchange-correlation= PW
                           (   1   4   0   0   0   0   0)


     celldm(1)=   10.18990  celldm(2)=    0.00000  celldm(3)=    0.00000
     celldm(4)=    0.00000  celldm(5)=    0.00000  celldm(6)=    0.00000

     crystal axes: (cart. coord. in units of alat)
               a(1) = ( -0.5000  0.0000  0.5000 )  
               a(2) = (  0.0000  0.5000  0.5000 )  
               a(3) = ( -0.5000  0.5000  0.0000 )  

     reciprocal axes: (cart. coord. in units 2 pi/alat)
               b(1) = ( -1.0000 -1.0000  1.0000 )  
               b(2) = (  1.0000  1.0000  1.0000 )  
               b(3) = ( -1.0000  1.0000 -1.0000 )  


     Atoms inside the unit cell: 

     Cartesian axes

     site n.  atom      mass           positions (alat units)
        1     Si  28.0855   tau(    1) = (    0.00000    0.00000    0.00000  )
        2     Si  28.0855   tau(    2) = (   -0.25000    0.25000    0.25000  )

     Computing dynamical matrix for 
                    q = (  -0.3333333   0.3333333  -0.3333333 )
 
      6 Sym.Ops. (no q -> -q+G )


     G cutoff =  736.4420  (    652 G-vectors)     FFT grid: ( 40, 40, 40)
     number of k points=   364

     PseudoPot. # 1 for Si read from file:
     ./pseudos/Si.nc.UPF
     MD5 check sum: 9e2d726316af3d4752eea8ab0afbb951
     Pseudo is Norm-conserving + core correction, Zval =  4.0
     Generated using ONCVPSP code by D. R. Hamann
     Using radial grid of 1510 points,  6 beta functions with: 
                l(1) =   0
                l(2) =   0
                l(3) =   1
                l(4) =   1
                l(5) =   2
                l(6) =   2

     Mode symmetry, C_3v (3m)   point group:


     Atomic displacements:
     There are    4 irreducible representations

     Representation     1      1 modes -  To be done

     Representation     2      1 modes -  To be done

     Representation     3      2 modes -  To be done

     Representation     4      2 modes -  To be done



     Alpha used in Ewald sum =   2.8000
     PHONON       :   4m21.32s CPU   5m 6.44s WALL



     Representation #   1 mode #   1

     Self-consistent Calculation

      iter #   1 total cpu time :   309.5 secs   av.it.:   6.5
      thresh= 1.000E-02 alpha_mix =  0.700 |ddv_scf|^2 =  3.838E-05

      iter #   2 total cpu time :   313.6 secs   av.it.:  10.1
      thresh= 6.195E-04 alpha_mix =  0.700 |ddv_scf|^2 =  3.063E-04

      iter #   3 total cpu time :   317.4 secs   av.it.:   8.7
      thresh= 1.750E-03 alpha_mix =  0.700 |ddv_scf|^2 =  5.643E-08

      iter #   4 total cpu time :   323.4 secs   av.it.:  10.3
      thresh= 2.376E-05 alpha_mix =  0.700 |ddv_scf|^2 =  1.148E-09

      iter #   5 total cpu time :   329.3 secs   av.it.:  10.3
      thresh= 3.388E-06 alpha_mix =  0.700 |ddv_scf|^2 =  1.215E-11

      iter #   6 total cpu time :   334.9 secs   av.it.:  10.8
      thresh= 3.486E-07 alpha_mix =  0.700 |ddv_scf|^2 =  1.393E-12

      iter #   7 total cpu time :   339.9 secs   av.it.:  10.7
      thresh= 1.180E-07 alpha_mix =  0.700 |ddv_scf|^2 =  1.553E-12

      iter #   8 total cpu time :   344.0 secs   av.it.:   9.7
      thresh= 1.246E-07 alpha_mix =  0.700 |ddv_scf|^2 =  9.972E-13

      iter #   9 total cpu time :   348.1 secs   av.it.:   9.5
      thresh= 9.986E-08 alpha_mix =  0.700 |ddv_scf|^2 =  1.432E-13

      iter #  10 total cpu time :   352.7 secs   av.it.:   9.5
      thresh= 3.784E-08 alpha_mix =  0.700 |ddv_scf|^2 =  1.230E-15

      iter #  11 total cpu time :   357.9 secs   av.it.:  10.1
      thresh= 3.507E-09 alpha_mix =  0.700 |ddv_scf|^2 =  1.074E-16

     End of self-consistent calculation

     Convergence has been achieved 


     Representation #   2 mode #   2

     Self-consistent Calculation

      iter #   1 total cpu time :   363.6 secs   av.it.:   6.5
      thresh= 1.000E-02 alpha_mix =  0.700 |ddv_scf|^2 =  3.838E-05

      iter #   2 total cpu time :   368.2 secs   av.it.:  10.1
      thresh= 6.195E-04 alpha_mix =  0.700 |ddv_scf|^2 =  3.063E-04

      iter #   3 total cpu time :   372.7 secs   av.it.:   8.7
      thresh= 1.750E-03 alpha_mix =  0.700 |ddv_scf|^2 =  5.643E-08

      iter #   4 total cpu time :   378.1 secs   av.it.:  10.3
      thresh= 2.376E-05 alpha_mix =  0.700 |ddv_scf|^2 =  1.148E-09

      iter #   5 total cpu time :   383.7 secs   av.it.:  10.3
      thresh= 3.388E-06 alpha_mix =  0.700 |ddv_scf|^2 =  1.215E-11

      iter #   6 total cpu time :   388.1 secs   av.it.:  10.8
      thresh= 3.486E-07 alpha_mix =  0.700 |ddv_scf|^2 =  1.393E-12

      iter #   7 total cpu time :   394.7 secs   av.it.:  10.7
      thresh= 1.180E-07 alpha_mix =  0.700 |ddv_scf|^2 =  1.553E-12

      iter #   8 total cpu time :   398.9 secs   av.it.:   9.7
      thresh= 1.246E-07 alpha_mix =  0.700 |ddv_scf|^2 =  9.972E-13

      iter #   9 total cpu time :   403.2 secs   av.it.:   9.5
      thresh= 9.986E-08 alpha_mix =  0.700 |ddv_scf|^2 =  1.432E-13

      iter #  10 total cpu time :   407.1 secs   av.it.:   9.5
      thresh= 3.784E-08 alpha_mix =  0.700 |ddv_scf|^2 =  1.230E-15

      iter #  11 total cpu time :   411.2 secs   av.it.:  10.1
      thresh= 3.507E-09 alpha_mix =  0.700 |ddv_scf|^2 =  1.075E-16

     End of self-consistent calculation

     Convergence has been achieved 


     Representation #   3 modes #   3   4

     Self-consistent Calculation

      iter #   1 total cpu time :   418.1 secs   av.it.:   6.1
      thresh= 1.000E-02 alpha_mix =  0.700 |ddv_scf|^2 =  2.154E-08

      iter #   2 total cpu time :   427.9 secs   av.it.:  11.9
      thresh= 1.468E-05 alpha_mix =  0.700 |ddv_scf|^2 =  1.492E-09

      iter #   3 total cpu time :   438.2 secs   av.it.:  11.6
      thresh= 3.863E-06 alpha_mix =  0.700 |ddv_scf|^2 =  2.160E-11

      iter #   4 total cpu time :   449.9 secs   av.it.:  11.8
      thresh= 4.648E-07 alpha_mix =  0.700 |ddv_scf|^2 =  2.166E-13

      iter #   5 total cpu time :   460.6 secs   av.it.:  11.8
      thresh= 4.654E-08 alpha_mix =  0.700 |ddv_scf|^2 =  4.216E-15

      iter #   6 total cpu time :   471.9 secs   av.it.:  12.1
      thresh= 6.493E-09 alpha_mix =  0.700 |ddv_scf|^2 =  2.875E-17

     End of self-consistent calculation

     Convergence has been achieved 


     Representation #   4 modes #   5   6

     Self-consistent Calculation

      iter #   1 total cpu time :   477.7 secs   av.it.:   6.1
      thresh= 1.000E-02 alpha_mix =  0.700 |ddv_scf|^2 =  2.154E-08

      iter #   2 total cpu time :   487.2 secs   av.it.:  11.8
      thresh= 1.468E-05 alpha_mix =  0.700 |ddv_scf|^2 =  1.493E-09

      iter #   3 total cpu time :   497.5 secs   av.it.:  11.6
      thresh= 3.864E-06 alpha_mix =  0.700 |ddv_scf|^2 =  2.159E-11

      iter #   4 total cpu time :   507.8 secs   av.it.:  11.8
      thresh= 4.647E-07 alpha_mix =  0.700 |ddv_scf|^2 =  2.167E-13

      iter #   5 total cpu time :   517.9 secs   av.it.:  11.8
      thresh= 4.655E-08 alpha_mix =  0.700 |ddv_scf|^2 =  4.215E-15

      iter #   6 total cpu time :   531.6 secs   av.it.:  12.1
      thresh= 6.492E-09 alpha_mix =  0.700 |ddv_scf|^2 =  2.870E-17

     End of self-consistent calculation

     Convergence has been achieved 
 
     Number of q in the star =    8
     List of q in the star:
          1  -0.333333333   0.333333333  -0.333333333
          2   0.333333333   0.333333333   0.333333333
          3  -0.333333333  -0.333333333  -0.333333333
          4   0.333333333  -0.333333333   0.333333333
          5   0.333333333  -0.333333333  -0.333333333
          6   0.333333333   0.333333333  -0.333333333
          7  -0.333333333  -0.333333333   0.333333333
          8  -0.333333333   0.333333333   0.333333333

     Diagonalizing the dynamical matrix

     q = (   -0.333333333   0.333333333  -0.333333333 ) 

 **************************************************************************
     freq (    1) =       3.044018 [THz] =     101.537521 [cm-1]
     freq (    2) =       3.044018 [THz] =     101.537521 [cm-1]
     freq (    3) =       8.747586 [THz] =     291.788051 [cm-1]
     freq (    4) =      13.856877 [THz] =     462.215672 [cm-1]
     freq (    5) =      14.763280 [THz] =     492.450015 [cm-1]
     freq (    6) =      14.763280 [THz] =     492.450015 [cm-1]
 **************************************************************************

     Mode symmetry, C_3v (3m)   point group:

     freq (   1-   2) =        101.5  [cm-1]   --> E    L_3           
     freq (   3-   3) =        291.8  [cm-1]   --> A_1  L_1           
     freq (   4-   4) =        462.2  [cm-1]   --> A_1  L_1           
     freq (   5-   6) =        492.5  [cm-1]   --> E    L_3           

     Calculation of q =    0.5000000  -0.5000000   0.5000000
 
     Parallelization info
     --------------------
     sticks:   dense  smooth     PW     G-vecs:    dense   smooth      PW
     Min          31      31     10                  651      651     124
     Max          32      32     12                  654      654     126
     Sum        1003    1003    337                20875    20875    4015
 
     Using Slab Decomposition
 

     Title: 
     default                                                                    


     bravais-lattice index     =            2
     lattice parameter (alat)  =      10.1899  a.u.
     unit-cell volume          =     264.5151 (a.u.)^3
     number of atoms/cell      =            2
     number of atomic types    =            1
     number of electrons       =         8.00
     number of Kohn-Sham states=            4
     kinetic-energy cutoff     =      70.0000  Ry
     charge density cutoff     =     280.0000  Ry
     Exchange-correlation= PW
                           (   1   4   0   0   0   0   0)

     celldm(1)=  10.189905  celldm(2)=   0.000000  celldm(3)=   0.000000
     celldm(4)=   0.000000  celldm(5)=   0.000000  celldm(6)=   0.000000

     crystal axes: (cart. coord. in units of alat)
               a(1) = (  -0.500000   0.000000   0.500000 )  
               a(2) = (   0.000000   0.500000   0.500000 )  
               a(3) = (  -0.500000   0.500000   0.000000 )  

     reciprocal axes: (cart. coord. in units 2 pi/alat)
               b(1) = ( -1.000000 -1.000000  1.000000 )  
               b(2) = (  1.000000  1.000000  1.000000 )  
               b(3) = ( -1.000000  1.000000 -1.000000 )  


     PseudoPot. # 1 for Si read from file:
     ./pseudos/Si.nc.UPF
     MD5 check sum: 9e2d726316af3d4752eea8ab0afbb951
     Pseudo is Norm-conserving + core correction, Zval =  4.0
     Generated using ONCVPSP code by D. R. Hamann
     Using radial grid of 1510 points,  6 beta functions with: 
                l(1) =   0
                l(2) =   0
                l(3) =   1
                l(4) =   1
                l(5) =   2
                l(6) =   2

     atomic species   valence    mass     pseudopotential
        Si             4.00    28.08550     Si( 1.00)

     48 Sym. Ops., with inversion, found



   Cartesian axes

     site n.     atom                  positions (alat units)
         1           Si  tau(   1) = (   0.0000000   0.0000000   0.0000000  )
         2           Si  tau(   2) = (  -0.2500000   0.2500000   0.2500000  )

     number of k points=   182

     Number of k-points >= 100: set verbosity='high' to print them.

     Dense  grid:    20875 G-vectors     FFT dimensions: (  40,  40,  40)

     Estimated max dynamical RAM per process >       1.78 MB

     Estimated total dynamical RAM >      56.87 MB

     The potential is recalculated from file :
     /fastscratch/tsievers/QE_TMP_DIR/_ph0/silicon_ph_bench_nd_9_n_procs_32_3.save/charge-density

     Starting wfcs are    8 atomic wfcs

     Band Structure Calculation
     Davidson diagonalization with overlap

     ethr =  1.25E-10,  avg # of iterations = 12.9

     total cpu time spent up to now is       40.6 secs

     End of band structure calculation

     Number of k-points >= 100: set verbosity='high' to print the bands.

     highest occupied level (ev):     6.1106

     Writing config to output data dir /fastscratch/tsievers/QE_TMP_DIR/_ph0/silicon_ph_bench_nd_9_n_procs_32_3.save/

     default                                                                    

     bravais-lattice index     =            2
     lattice parameter (alat)  =      10.1899  a.u.
     unit-cell volume          =     264.5151 (a.u.)^3
     number of atoms/cell      =            2
     number of atomic types    =            1
     kinetic-energy cut-off    =      70.0000  Ry
     charge density cut-off    =     280.0000  Ry
     convergence threshold     =      1.0E-15
     beta                      =       0.7000
     number of iterations used =            4
     Exchange-correlation= PW
                           (   1   4   0   0   0   0   0)


     celldm(1)=   10.18990  celldm(2)=    0.00000  celldm(3)=    0.00000
     celldm(4)=    0.00000  celldm(5)=    0.00000  celldm(6)=    0.00000

     crystal axes: (cart. coord. in units of alat)
               a(1) = ( -0.5000  0.0000  0.5000 )  
               a(2) = (  0.0000  0.5000  0.5000 )  
               a(3) = ( -0.5000  0.5000  0.0000 )  

     reciprocal axes: (cart. coord. in units 2 pi/alat)
               b(1) = ( -1.0000 -1.0000  1.0000 )  
               b(2) = (  1.0000  1.0000  1.0000 )  
               b(3) = ( -1.0000  1.0000 -1.0000 )  


     Atoms inside the unit cell: 

     Cartesian axes

     site n.  atom      mass           positions (alat units)
        1     Si  28.0855   tau(    1) = (    0.00000    0.00000    0.00000  )
        2     Si  28.0855   tau(    2) = (   -0.25000    0.25000    0.25000  )

     Computing dynamical matrix for 
                    q = (   0.5000000  -0.5000000   0.5000000 )
 
     13 Sym.Ops. (with q -> -q+G )


     G cutoff =  736.4420  (    652 G-vectors)     FFT grid: ( 40, 40, 40)
     number of k points=   182

     PseudoPot. # 1 for Si read from file:
     ./pseudos/Si.nc.UPF
     MD5 check sum: 9e2d726316af3d4752eea8ab0afbb951
     Pseudo is Norm-conserving + core correction, Zval =  4.0
     Generated using ONCVPSP code by D. R. Hamann
     Using radial grid of 1510 points,  6 beta functions with: 
                l(1) =   0
                l(2) =   0
                l(3) =   1
                l(4) =   1
                l(5) =   2
                l(6) =   2


     Atomic displacements:
     There are    4 irreducible representations

     Representation     1      1 modes -  To be done

     Representation     2      1 modes -  To be done

     Representation     3      2 modes -  To be done

     Representation     4      2 modes -  To be done



     Alpha used in Ewald sum =   2.8000
     PHONON       :   7m50.80s CPU   9m 1.81s WALL



     Representation #   1 mode #   1

     Self-consistent Calculation

      iter #   1 total cpu time :   543.2 secs   av.it.:   5.8
      thresh= 1.000E-02 alpha_mix =  0.700 |ddv_scf|^2 =  1.228E-06

      iter #   2 total cpu time :   545.6 secs   av.it.:  10.4
      thresh= 1.108E-04 alpha_mix =  0.700 |ddv_scf|^2 =  1.133E-06

      iter #   3 total cpu time :   548.2 secs   av.it.:   9.7
      thresh= 1.064E-04 alpha_mix =  0.700 |ddv_scf|^2 =  1.514E-10

      iter #   4 total cpu time :   550.4 secs   av.it.:  10.5
      thresh= 1.231E-06 alpha_mix =  0.700 |ddv_scf|^2 =  2.609E-12

      iter #   5 total cpu time :   552.5 secs   av.it.:  10.3
      thresh= 1.615E-07 alpha_mix =  0.700 |ddv_scf|^2 =  3.726E-14

      iter #   6 total cpu time :   554.6 secs   av.it.:  10.3
      thresh= 1.930E-08 alpha_mix =  0.700 |ddv_scf|^2 =  4.871E-16

     End of self-consistent calculation

     Convergence has been achieved 


     Representation #   2 mode #   2

     Self-consistent Calculation

      iter #   1 total cpu time :   556.3 secs   av.it.:   6.7
      thresh= 1.000E-02 alpha_mix =  0.700 |ddv_scf|^2 =  1.876E-05

      iter #   2 total cpu time :   558.5 secs   av.it.:  10.5
      thresh= 4.331E-04 alpha_mix =  0.700 |ddv_scf|^2 =  6.129E-05

      iter #   3 total cpu time :   560.6 secs   av.it.:   9.5
      thresh= 7.829E-04 alpha_mix =  0.700 |ddv_scf|^2 =  3.620E-09

      iter #   4 total cpu time :   562.7 secs   av.it.:  10.2
      thresh= 6.016E-06 alpha_mix =  0.700 |ddv_scf|^2 =  7.602E-11

      iter #   5 total cpu time :   565.0 secs   av.it.:  10.7
      thresh= 8.719E-07 alpha_mix =  0.700 |ddv_scf|^2 =  3.805E-12

      iter #   6 total cpu time :   567.7 secs   av.it.:  10.4
      thresh= 1.951E-07 alpha_mix =  0.700 |ddv_scf|^2 =  1.076E-13

      iter #   7 total cpu time :   570.8 secs   av.it.:   9.9
      thresh= 3.281E-08 alpha_mix =  0.700 |ddv_scf|^2 =  1.792E-17

     End of self-consistent calculation

     Convergence has been achieved 


     Representation #   3 modes #   3   4

     Self-consistent Calculation

      iter #   1 total cpu time :   577.8 secs   av.it.:   6.1
      thresh= 1.000E-02 alpha_mix =  0.700 |ddv_scf|^2 =  4.335E-08

      iter #   2 total cpu time :   582.6 secs   av.it.:  11.7
      thresh= 2.082E-05 alpha_mix =  0.700 |ddv_scf|^2 =  3.675E-09

      iter #   3 total cpu time :   588.6 secs   av.it.:  11.5
      thresh= 6.062E-06 alpha_mix =  0.700 |ddv_scf|^2 =  2.461E-11

      iter #   4 total cpu time :   593.6 secs   av.it.:  11.5
      thresh= 4.960E-07 alpha_mix =  0.700 |ddv_scf|^2 =  2.751E-14

      iter #   5 total cpu time :   598.4 secs   av.it.:  12.0
      thresh= 1.659E-08 alpha_mix =  0.700 |ddv_scf|^2 =  3.623E-16

     End of self-consistent calculation

     Convergence has been achieved 


     Representation #   4 modes #   5   6

     Self-consistent Calculation

      iter #   1 total cpu time :   602.6 secs   av.it.:   5.5
      thresh= 1.000E-02 alpha_mix =  0.700 |ddv_scf|^2 =  4.920E-09

      iter #   2 total cpu time :   609.3 secs   av.it.:  11.6
      thresh= 7.015E-06 alpha_mix =  0.700 |ddv_scf|^2 =  1.290E-10

      iter #   3 total cpu time :   614.0 secs   av.it.:  11.6
      thresh= 1.136E-06 alpha_mix =  0.700 |ddv_scf|^2 =  7.933E-12

      iter #   4 total cpu time :   620.1 secs   av.it.:  11.6
      thresh= 2.817E-07 alpha_mix =  0.700 |ddv_scf|^2 =  3.391E-14

      iter #   5 total cpu time :   625.0 secs   av.it.:  11.7
      thresh= 1.842E-08 alpha_mix =  0.700 |ddv_scf|^2 =  5.419E-16

     End of self-consistent calculation

     Convergence has been achieved 
 
     Number of q in the star =    4
     List of q in the star:
          1   0.500000000  -0.500000000   0.500000000
          2   0.500000000   0.500000000   0.500000000
          3  -0.500000000   0.500000000   0.500000000
          4   0.500000000   0.500000000  -0.500000000

     Diagonalizing the dynamical matrix

     q = (    0.500000000  -0.500000000   0.500000000 ) 

 **************************************************************************
     freq (    1) =       3.157109 [THz] =     105.309806 [cm-1]
     freq (    2) =       3.157109 [THz] =     105.309806 [cm-1]
     freq (    3) =      11.169063 [THz] =     372.559844 [cm-1]
     freq (    4) =      12.390603 [THz] =     413.306042 [cm-1]
     freq (    5) =      14.704242 [THz] =     490.480703 [cm-1]
     freq (    6) =      14.704242 [THz] =     490.480703 [cm-1]
 **************************************************************************

     Calculation of q =    0.0000000   0.3333333   0.0000000
 
     Parallelization info
     --------------------
     sticks:   dense  smooth     PW     G-vecs:    dense   smooth      PW
     Min          31      31      9                  651      651     113
     Max          32      32     10                  654      654     119
     Sum        1003    1003    313                20875    20875    3719
 
     Using Slab Decomposition
 

     Title: 
     default                                                                    


     bravais-lattice index     =            2
     lattice parameter (alat)  =      10.1899  a.u.
     unit-cell volume          =     264.5151 (a.u.)^3
     number of atoms/cell      =            2
     number of atomic types    =            1
     number of electrons       =         8.00
     number of Kohn-Sham states=            4
     kinetic-energy cutoff     =      70.0000  Ry
     charge density cutoff     =     280.0000  Ry
     Exchange-correlation= PW
                           (   1   4   0   0   0   0   0)

     celldm(1)=  10.189905  celldm(2)=   0.000000  celldm(3)=   0.000000
     celldm(4)=   0.000000  celldm(5)=   0.000000  celldm(6)=   0.000000

     crystal axes: (cart. coord. in units of alat)
               a(1) = (  -0.500000   0.000000   0.500000 )  
               a(2) = (   0.000000   0.500000   0.500000 )  
               a(3) = (  -0.500000   0.500000   0.000000 )  

     reciprocal axes: (cart. coord. in units 2 pi/alat)
               b(1) = ( -1.000000 -1.000000  1.000000 )  
               b(2) = (  1.000000  1.000000  1.000000 )  
               b(3) = ( -1.000000  1.000000 -1.000000 )  


     PseudoPot. # 1 for Si read from file:
     ./pseudos/Si.nc.UPF
     MD5 check sum: 9e2d726316af3d4752eea8ab0afbb951
     Pseudo is Norm-conserving + core correction, Zval =  4.0
     Generated using ONCVPSP code by D. R. Hamann
     Using radial grid of 1510 points,  6 beta functions with: 
                l(1) =   0
                l(2) =   0
                l(3) =   1
                l(4) =   1
                l(5) =   2
                l(6) =   2

     atomic species   valence    mass     pseudopotential
        Si             4.00    28.08550     Si( 1.00)

     48 Sym. Ops., with inversion, found



   Cartesian axes

     site n.     atom                  positions (alat units)
         1           Si  tau(   1) = (   0.0000000   0.0000000   0.0000000  )
         2           Si  tau(   2) = (  -0.2500000   0.2500000   0.2500000  )

     number of k points=   252

     Number of k-points >= 100: set verbosity='high' to print them.

     Dense  grid:    20875 G-vectors     FFT dimensions: (  40,  40,  40)

     Estimated max dynamical RAM per process >       1.75 MB

     Estimated total dynamical RAM >      56.02 MB

     The potential is recalculated from file :
     /fastscratch/tsievers/QE_TMP_DIR/_ph0/silicon_ph_bench_nd_9_n_procs_32_3.save/charge-density

     Starting wfcs are    8 atomic wfcs

     Band Structure Calculation
     Davidson diagonalization with overlap

     ethr =  1.25E-10,  avg # of iterations = 12.8

     total cpu time spent up to now is       51.6 secs

     End of band structure calculation

     Number of k-points >= 100: set verbosity='high' to print the bands.

     highest occupied level (ev):     6.1106

     Writing config to output data dir /fastscratch/tsievers/QE_TMP_DIR/_ph0/silicon_ph_bench_nd_9_n_procs_32_3.save/

     default                                                                    

     bravais-lattice index     =            2
     lattice parameter (alat)  =      10.1899  a.u.
     unit-cell volume          =     264.5151 (a.u.)^3
     number of atoms/cell      =            2
     number of atomic types    =            1
     kinetic-energy cut-off    =      70.0000  Ry
     charge density cut-off    =     280.0000  Ry
     convergence threshold     =      1.0E-15
     beta                      =       0.7000
     number of iterations used =            4
     Exchange-correlation= PW
                           (   1   4   0   0   0   0   0)


     celldm(1)=   10.18990  celldm(2)=    0.00000  celldm(3)=    0.00000
     celldm(4)=    0.00000  celldm(5)=    0.00000  celldm(6)=    0.00000

     crystal axes: (cart. coord. in units of alat)
               a(1) = ( -0.5000  0.0000  0.5000 )  
               a(2) = (  0.0000  0.5000  0.5000 )  
               a(3) = ( -0.5000  0.5000  0.0000 )  

     reciprocal axes: (cart. coord. in units 2 pi/alat)
               b(1) = ( -1.0000 -1.0000  1.0000 )  
               b(2) = (  1.0000  1.0000  1.0000 )  
               b(3) = ( -1.0000  1.0000 -1.0000 )  


     Atoms inside the unit cell: 

     Cartesian axes

     site n.  atom      mass           positions (alat units)
        1     Si  28.0855   tau(    1) = (    0.00000    0.00000    0.00000  )
        2     Si  28.0855   tau(    2) = (   -0.25000    0.25000    0.25000  )

     Computing dynamical matrix for 
                    q = (   0.0000000   0.3333333   0.0000000 )
 
      8 Sym.Ops. (no q -> -q+G )


     G cutoff =  736.4420  (    652 G-vectors)     FFT grid: ( 40, 40, 40)
     number of k points=   252

     PseudoPot. # 1 for Si read from file:
     ./pseudos/Si.nc.UPF
     MD5 check sum: 9e2d726316af3d4752eea8ab0afbb951
     Pseudo is Norm-conserving + core correction, Zval =  4.0
     Generated using ONCVPSP code by D. R. Hamann
     Using radial grid of 1510 points,  6 beta functions with: 
                l(1) =   0
                l(2) =   0
                l(3) =   1
                l(4) =   1
                l(5) =   2
                l(6) =   2

     Mode symmetry, C_4v (4mm)  point group:


     Atomic displacements:
     There are    4 irreducible representations

     Representation     1      1 modes -  To be done

     Representation     2      1 modes -  To be done

     Representation     3      2 modes -  To be done

     Representation     4      2 modes -  To be done



     Alpha used in Ewald sum =   2.8000
     PHONON       :   9m11.46s CPU  10m36.84s WALL



     Representation #   1 mode #   1

     Self-consistent Calculation

      iter #   1 total cpu time :   639.0 secs   av.it.:   6.8
      thresh= 1.000E-02 alpha_mix =  0.700 |ddv_scf|^2 =  8.142E-04

      iter #   2 total cpu time :   641.7 secs   av.it.:   9.6
      thresh= 2.853E-03 alpha_mix =  0.700 |ddv_scf|^2 =  2.483E-02

      iter #   3 total cpu time :   644.2 secs   av.it.:   8.1
      thresh= 1.000E-02 alpha_mix =  0.700 |ddv_scf|^2 =  2.292E-08

      iter #   4 total cpu time :   646.9 secs   av.it.:   9.4
      thresh= 1.514E-05 alpha_mix =  0.700 |ddv_scf|^2 =  1.090E-09

      iter #   5 total cpu time :   649.6 secs   av.it.:   9.1
      thresh= 3.302E-06 alpha_mix =  0.700 |ddv_scf|^2 =  3.542E-10

      iter #   6 total cpu time :   652.1 secs   av.it.:   8.7
      thresh= 1.882E-06 alpha_mix =  0.700 |ddv_scf|^2 =  4.791E-13

      iter #   7 total cpu time :   654.7 secs   av.it.:   8.9
      thresh= 6.922E-08 alpha_mix =  0.700 |ddv_scf|^2 =  1.085E-14

      iter #   8 total cpu time :   657.2 secs   av.it.:   8.8
      thresh= 1.042E-08 alpha_mix =  0.700 |ddv_scf|^2 =  1.350E-16

     End of self-consistent calculation

     Convergence has been achieved 


     Representation #   2 mode #   2

     Self-consistent Calculation

      iter #   1 total cpu time :   660.6 secs   av.it.:   5.9
      thresh= 1.000E-02 alpha_mix =  0.700 |ddv_scf|^2 =  1.243E-07

      iter #   2 total cpu time :   665.0 secs   av.it.:  10.8
      thresh= 3.525E-05 alpha_mix =  0.700 |ddv_scf|^2 =  2.010E-08

      iter #   3 total cpu time :   669.2 secs   av.it.:  10.6
      thresh= 1.418E-05 alpha_mix =  0.700 |ddv_scf|^2 =  2.542E-10

      iter #   4 total cpu time :   675.9 secs   av.it.:  10.7
      thresh= 1.594E-06 alpha_mix =  0.700 |ddv_scf|^2 =  1.056E-11

      iter #   5 total cpu time :   679.2 secs   av.it.:  10.7
      thresh= 3.249E-07 alpha_mix =  0.700 |ddv_scf|^2 =  2.406E-14

      iter #   6 total cpu time :   682.3 secs   av.it.:  11.0
      thresh= 1.551E-08 alpha_mix =  0.700 |ddv_scf|^2 =  4.804E-16

     End of self-consistent calculation

     Convergence has been achieved 


     Representation #   3 modes #   3   4

     Self-consistent Calculation

      iter #   1 total cpu time :   686.6 secs   av.it.:   6.1
      thresh= 1.000E-02 alpha_mix =  0.700 |ddv_scf|^2 =  2.250E-08

      iter #   2 total cpu time :   694.9 secs   av.it.:  11.8
      thresh= 1.500E-05 alpha_mix =  0.700 |ddv_scf|^2 =  2.051E-09

      iter #   3 total cpu time :   701.2 secs   av.it.:  11.6
      thresh= 4.529E-06 alpha_mix =  0.700 |ddv_scf|^2 =  2.390E-11

      iter #   4 total cpu time :   708.5 secs   av.it.:  11.7
      thresh= 4.889E-07 alpha_mix =  0.700 |ddv_scf|^2 =  2.687E-13

      iter #   5 total cpu time :   715.2 secs   av.it.:  11.7
      thresh= 5.184E-08 alpha_mix =  0.700 |ddv_scf|^2 =  4.460E-15

      iter #   6 total cpu time :   722.4 secs   av.it.:  12.1
      thresh= 6.679E-09 alpha_mix =  0.700 |ddv_scf|^2 =  1.816E-17

     End of self-consistent calculation

     Convergence has been achieved 


     Representation #   4 modes #   5   6

     Self-consistent Calculation

      iter #   1 total cpu time :   727.9 secs   av.it.:   6.0
      thresh= 1.000E-02 alpha_mix =  0.700 |ddv_scf|^2 =  2.966E-08

      iter #   2 total cpu time :   735.7 secs   av.it.:  11.7
      thresh= 1.722E-05 alpha_mix =  0.700 |ddv_scf|^2 =  2.797E-09

      iter #   3 total cpu time :   744.5 secs   av.it.:  11.4
      thresh= 5.288E-06 alpha_mix =  0.700 |ddv_scf|^2 =  2.530E-11

      iter #   4 total cpu time :   751.0 secs   av.it.:  11.7
      thresh= 5.030E-07 alpha_mix =  0.700 |ddv_scf|^2 =  1.720E-13

      iter #   5 total cpu time :   758.1 secs   av.it.:  11.6
      thresh= 4.147E-08 alpha_mix =  0.700 |ddv_scf|^2 =  4.083E-15

      iter #   6 total cpu time :   765.6 secs   av.it.:  12.1
      thresh= 6.390E-09 alpha_mix =  0.700 |ddv_scf|^2 =  1.729E-17

     End of self-consistent calculation

     Convergence has been achieved 
 
     Number of q in the star =    6
     List of q in the star:
          1   0.000000000   0.333333333   0.000000000
          2   0.333333333   0.000000000   0.000000000
          3   0.000000000   0.000000000   0.333333333
          4   0.000000000  -0.333333333   0.000000000
          5  -0.333333333   0.000000000   0.000000000
          6   0.000000000   0.000000000  -0.333333333

     Diagonalizing the dynamical matrix

     q = (    0.000000000   0.333333333   0.000000000 ) 

 **************************************************************************
     freq (    1) =       2.948362 [THz] =      98.346772 [cm-1]
     freq (    2) =       2.948362 [THz] =      98.346772 [cm-1]
     freq (    3) =       4.953279 [THz] =     165.223591 [cm-1]
     freq (    4) =      14.670258 [THz] =     489.347139 [cm-1]
     freq (    5) =      14.670258 [THz] =     489.347139 [cm-1]
     freq (    6) =      15.142871 [THz] =     505.111800 [cm-1]
 **************************************************************************

     Mode symmetry, C_4v (4mm)  point group:

     freq (   1-   2) =         98.3  [cm-1]   --> E    G_5 D_5       
     freq (   3-   3) =        165.2  [cm-1]   --> A_1  G_1 D_1       
     freq (   4-   5) =        489.3  [cm-1]   --> E    G_5 D_5       
     freq (   6-   6) =        505.1  [cm-1]   --> B_2  G_4 D_2'      

     Calculation of q =   -0.1666667   0.5000000  -0.1666667
 
     Parallelization info
     --------------------
     sticks:   dense  smooth     PW     G-vecs:    dense   smooth      PW
     Min          31      31      9                  651      651     116
     Max          32      32     10                  654      654     122
     Sum        1003    1003    313                20875    20875    3839
 
     Using Slab Decomposition
 

     Title: 
     default                                                                    


     bravais-lattice index     =            2
     lattice parameter (alat)  =      10.1899  a.u.
     unit-cell volume          =     264.5151 (a.u.)^3
     number of atoms/cell      =            2
     number of atomic types    =            1
     number of electrons       =         8.00
     number of Kohn-Sham states=            4
     kinetic-energy cutoff     =      70.0000  Ry
     charge density cutoff     =     280.0000  Ry
     Exchange-correlation= PW
                           (   1   4   0   0   0   0   0)

     celldm(1)=  10.189905  celldm(2)=   0.000000  celldm(3)=   0.000000
     celldm(4)=   0.000000  celldm(5)=   0.000000  celldm(6)=   0.000000

     crystal axes: (cart. coord. in units of alat)
               a(1) = (  -0.500000   0.000000   0.500000 )  
               a(2) = (   0.000000   0.500000   0.500000 )  
               a(3) = (  -0.500000   0.500000   0.000000 )  

     reciprocal axes: (cart. coord. in units 2 pi/alat)
               b(1) = ( -1.000000 -1.000000  1.000000 )  
               b(2) = (  1.000000  1.000000  1.000000 )  
               b(3) = ( -1.000000  1.000000 -1.000000 )  


     PseudoPot. # 1 for Si read from file:
     ./pseudos/Si.nc.UPF
     MD5 check sum: 9e2d726316af3d4752eea8ab0afbb951
     Pseudo is Norm-conserving + core correction, Zval =  4.0
     Generated using ONCVPSP code by D. R. Hamann
     Using radial grid of 1510 points,  6 beta functions with: 
                l(1) =   0
                l(2) =   0
                l(3) =   1
                l(4) =   1
                l(5) =   2
                l(6) =   2

     atomic species   valence    mass     pseudopotential
        Si             4.00    28.08550     Si( 1.00)

     48 Sym. Ops., with inversion, found



   Cartesian axes

     site n.     atom                  positions (alat units)
         1           Si  tau(   1) = (   0.0000000   0.0000000   0.0000000  )
         2           Si  tau(   2) = (  -0.2500000   0.2500000   0.2500000  )

     number of k points=   936

     Number of k-points >= 100: set verbosity='high' to print them.

     Dense  grid:    20875 G-vectors     FFT dimensions: (  40,  40,  40)

     Estimated max dynamical RAM per process >       1.76 MB

     Estimated total dynamical RAM >      56.38 MB

     The potential is recalculated from file :
     /fastscratch/tsievers/QE_TMP_DIR/_ph0/silicon_ph_bench_nd_9_n_procs_32_3.save/charge-density

     Starting wfcs are    8 atomic wfcs

     Band Structure Calculation
     Davidson diagonalization with overlap

     ethr =  1.25E-10,  avg # of iterations = 12.8

     total cpu time spent up to now is       94.5 secs

     End of band structure calculation

     Number of k-points >= 100: set verbosity='high' to print the bands.

     highest occupied level (ev):     6.1106

     Writing config to output data dir /fastscratch/tsievers/QE_TMP_DIR/_ph0/silicon_ph_bench_nd_9_n_procs_32_3.save/

     default                                                                    

     bravais-lattice index     =            2
     lattice parameter (alat)  =      10.1899  a.u.
     unit-cell volume          =     264.5151 (a.u.)^3
     number of atoms/cell      =            2
     number of atomic types    =            1
     kinetic-energy cut-off    =      70.0000  Ry
     charge density cut-off    =     280.0000  Ry
     convergence threshold     =      1.0E-15
     beta                      =       0.7000
     number of iterations used =            4
     Exchange-correlation= PW
                           (   1   4   0   0   0   0   0)


     celldm(1)=   10.18990  celldm(2)=    0.00000  celldm(3)=    0.00000
     celldm(4)=    0.00000  celldm(5)=    0.00000  celldm(6)=    0.00000

     crystal axes: (cart. coord. in units of alat)
               a(1) = ( -0.5000  0.0000  0.5000 )  
               a(2) = (  0.0000  0.5000  0.5000 )  
               a(3) = ( -0.5000  0.5000  0.0000 )  

     reciprocal axes: (cart. coord. in units 2 pi/alat)
               b(1) = ( -1.0000 -1.0000  1.0000 )  
               b(2) = (  1.0000  1.0000  1.0000 )  
               b(3) = ( -1.0000  1.0000 -1.0000 )  


     Atoms inside the unit cell: 

     Cartesian axes

     site n.  atom      mass           positions (alat units)
[...]
                l(1) =   0
                l(2) =   0
                l(3) =   1
                l(4) =   1
                l(5) =   2
                l(6) =   2

     atomic species   valence    mass     pseudopotential
        Si             4.00    28.08550     Si( 1.00)

     48 Sym. Ops., with inversion, found



   Cartesian axes

     site n.     atom                  positions (alat units)
         1           Si  tau(   1) = (   0.0000000   0.0000000   0.0000000  )
         2           Si  tau(   2) = (  -0.2500000   0.2500000   0.2500000  )

     number of k points=   864

     Number of k-points >= 100: set verbosity='high' to print them.

     Dense  grid:    20875 G-vectors     FFT dimensions: (  40,  40,  40)

     Estimated max dynamical RAM per process >       1.78 MB

     Estimated total dynamical RAM >      57.07 MB

     The potential is recalculated from file :
     /fastscratch/tsievers/QE_TMP_DIR/_ph0/silicon_ph_bench_nd_9_n_procs_32_3.save/charge-density

     Starting wfcs are    8 atomic wfcs

     Band Structure Calculation
     Davidson diagonalization with overlap

     ethr =  1.25E-10,  avg # of iterations = 12.8

     total cpu time spent up to now is      370.4 secs

     End of band structure calculation

     Number of k-points >= 100: set verbosity='high' to print the bands.

     highest occupied level (ev):     6.1106

     Writing config to output data dir /fastscratch/tsievers/QE_TMP_DIR/_ph0/silicon_ph_bench_nd_9_n_procs_32_3.save/

     default                                                                    

     bravais-lattice index     =            2
     lattice parameter (alat)  =      10.1899  a.u.
     unit-cell volume          =     264.5151 (a.u.)^3
     number of atoms/cell      =            2
     number of atomic types    =            1
     kinetic-energy cut-off    =      70.0000  Ry
     charge density cut-off    =     280.0000  Ry
     convergence threshold     =      1.0E-15
     beta                      =       0.7000
     number of iterations used =            4
     Exchange-correlation= PW
                           (   1   4   0   0   0   0   0)


     celldm(1)=   10.18990  celldm(2)=    0.00000  celldm(3)=    0.00000
     celldm(4)=    0.00000  celldm(5)=    0.00000  celldm(6)=    0.00000

     crystal axes: (cart. coord. in units of alat)
               a(1) = ( -0.5000  0.0000  0.5000 )  
               a(2) = (  0.0000  0.5000  0.5000 )  
               a(3) = ( -0.5000  0.5000  0.0000 )  

     reciprocal axes: (cart. coord. in units 2 pi/alat)
               b(1) = ( -1.0000 -1.0000  1.0000 )  
               b(2) = (  1.0000  1.0000  1.0000 )  
               b(3) = ( -1.0000  1.0000 -1.0000 )  


     Atoms inside the unit cell: 

     Cartesian axes

     site n.  atom      mass           positions (alat units)
        1     Si  28.0855   tau(    1) = (    0.00000    0.00000    0.00000  )
        2     Si  28.0855   tau(    2) = (   -0.25000    0.25000    0.25000  )

     Computing dynamical matrix for 
                    q = (   0.5000000  -0.1666667   0.8333333 )
 
      2 Sym.Ops. (no q -> -q+G )


     G cutoff =  736.4420  (    652 G-vectors)     FFT grid: ( 40, 40, 40)
     number of k points=   864

     PseudoPot. # 1 for Si read from file:
     ./pseudos/Si.nc.UPF
     MD5 check sum: 9e2d726316af3d4752eea8ab0afbb951
     Pseudo is Norm-conserving + core correction, Zval =  4.0
     Generated using ONCVPSP code by D. R. Hamann
     Using radial grid of 1510 points,  6 beta functions with: 
                l(1) =   0
                l(2) =   0
                l(3) =   1
                l(4) =   1
                l(5) =   2
                l(6) =   2


     Atomic displacements:
     There are    6 irreducible representations

     Representation     1      1 modes -  To be done

     Representation     2      1 modes -  To be done

     Representation     3      1 modes -  To be done

     Representation     4      1 modes -  To be done

     Representation     5      1 modes -  To be done

     Representation     6      1 modes -  To be done



     Alpha used in Ewald sum =   2.8000
     PHONON       :      1h10m CPU      1h19m WALL



     Representation #   1 mode #   1

     Self-consistent Calculation

      iter #   1 total cpu time :  4759.1 secs   av.it.:   6.1
      thresh= 1.000E-02 alpha_mix =  0.700 |ddv_scf|^2 =  7.816E-07

      iter #   2 total cpu time :  4770.1 secs   av.it.:  11.0
      thresh= 8.841E-05 alpha_mix =  0.700 |ddv_scf|^2 =  1.266E-06

      iter #   3 total cpu time :  4779.5 secs   av.it.:  10.1
      thresh= 1.125E-04 alpha_mix =  0.700 |ddv_scf|^2 =  2.865E-09

      iter #   4 total cpu time :  4791.6 secs   av.it.:  10.8
      thresh= 5.353E-06 alpha_mix =  0.700 |ddv_scf|^2 =  8.974E-11

      iter #   5 total cpu time :  4801.4 secs   av.it.:  11.0
      thresh= 9.473E-07 alpha_mix =  0.700 |ddv_scf|^2 =  8.903E-13

      iter #   6 total cpu time :  4811.6 secs   av.it.:  11.0
      thresh= 9.436E-08 alpha_mix =  0.700 |ddv_scf|^2 =  1.524E-14

      iter #   7 total cpu time :  4825.9 secs   av.it.:  11.1
      thresh= 1.235E-08 alpha_mix =  0.700 |ddv_scf|^2 =  5.647E-16

     End of self-consistent calculation

     Convergence has been achieved 


     Representation #   2 mode #   2

     Self-consistent Calculation

      iter #   1 total cpu time :  4832.6 secs   av.it.:   6.5
      thresh= 1.000E-02 alpha_mix =  0.700 |ddv_scf|^2 =  3.011E-06

      iter #   2 total cpu time :  4842.4 secs   av.it.:  11.1
      thresh= 1.735E-04 alpha_mix =  0.700 |ddv_scf|^2 =  4.804E-06

      iter #   3 total cpu time :  4853.6 secs   av.it.:  10.2
      thresh= 2.192E-04 alpha_mix =  0.700 |ddv_scf|^2 =  9.268E-09

      iter #   4 total cpu time :  4863.2 secs   av.it.:  10.7
      thresh= 9.627E-06 alpha_mix =  0.700 |ddv_scf|^2 =  1.658E-10

      iter #   5 total cpu time :  4872.8 secs   av.it.:  10.9
      thresh= 1.288E-06 alpha_mix =  0.700 |ddv_scf|^2 =  9.145E-13

      iter #   6 total cpu time :  4884.1 secs   av.it.:  11.0
      thresh= 9.563E-08 alpha_mix =  0.700 |ddv_scf|^2 =  2.615E-14

      iter #   7 total cpu time :  4893.9 secs   av.it.:  11.0
      thresh= 1.617E-08 alpha_mix =  0.700 |ddv_scf|^2 =  2.906E-15

      iter #   8 total cpu time :  4905.9 secs   av.it.:  10.9
      thresh= 5.391E-09 alpha_mix =  0.700 |ddv_scf|^2 =  3.933E-17

     End of self-consistent calculation

     Convergence has been achieved 


     Representation #   3 mode #   3

     Self-consistent Calculation

      iter #   1 total cpu time :  4916.0 secs   av.it.:   6.3
      thresh= 1.000E-02 alpha_mix =  0.700 |ddv_scf|^2 =  1.832E-06

      iter #   2 total cpu time :  4927.4 secs   av.it.:  11.1
      thresh= 1.354E-04 alpha_mix =  0.700 |ddv_scf|^2 =  3.011E-06

      iter #   3 total cpu time :  4937.0 secs   av.it.:  10.2
      thresh= 1.735E-04 alpha_mix =  0.700 |ddv_scf|^2 =  3.863E-09

      iter #   4 total cpu time :  4946.9 secs   av.it.:  10.8
      thresh= 6.215E-06 alpha_mix =  0.700 |ddv_scf|^2 =  1.924E-10

      iter #   5 total cpu time :  4956.9 secs   av.it.:  10.9
      thresh= 1.387E-06 alpha_mix =  0.700 |ddv_scf|^2 =  2.371E-12

      iter #   6 total cpu time :  4967.4 secs   av.it.:  11.1
      thresh= 1.540E-07 alpha_mix =  0.700 |ddv_scf|^2 =  3.675E-14

      iter #   7 total cpu time :  4977.4 secs   av.it.:  10.9
      thresh= 1.917E-08 alpha_mix =  0.700 |ddv_scf|^2 =  2.774E-15

      iter #   8 total cpu time :  4987.8 secs   av.it.:  10.9
      thresh= 5.267E-09 alpha_mix =  0.700 |ddv_scf|^2 =  1.120E-17

     End of self-consistent calculation

     Convergence has been achieved 


     Representation #   4 mode #   4

     Self-consistent Calculation

      iter #   1 total cpu time :  4995.1 secs   av.it.:   6.3
      thresh= 1.000E-02 alpha_mix =  0.700 |ddv_scf|^2 =  1.877E-06

      iter #   2 total cpu time :  5006.7 secs   av.it.:  11.0
      thresh= 1.370E-04 alpha_mix =  0.700 |ddv_scf|^2 =  3.126E-06

      iter #   3 total cpu time :  5015.8 secs   av.it.:  10.1
      thresh= 1.768E-04 alpha_mix =  0.700 |ddv_scf|^2 =  4.677E-09

      iter #   4 total cpu time :  5028.4 secs   av.it.:  10.8
      thresh= 6.839E-06 alpha_mix =  0.700 |ddv_scf|^2 =  9.055E-11

      iter #   5 total cpu time :  5038.2 secs   av.it.:  11.0
      thresh= 9.516E-07 alpha_mix =  0.700 |ddv_scf|^2 =  1.204E-12

      iter #   6 total cpu time :  5048.3 secs   av.it.:  11.0
      thresh= 1.097E-07 alpha_mix =  0.700 |ddv_scf|^2 =  1.463E-14

      iter #   7 total cpu time :  5060.3 secs   av.it.:  11.1
      thresh= 1.210E-08 alpha_mix =  0.700 |ddv_scf|^2 =  7.890E-16

     End of self-consistent calculation

     Convergence has been achieved 


     Representation #   5 mode #   5

     Self-consistent Calculation

      iter #   1 total cpu time :  5067.9 secs   av.it.:   6.6
      thresh= 1.000E-02 alpha_mix =  0.700 |ddv_scf|^2 =  2.102E-06

      iter #   2 total cpu time :  5078.2 secs   av.it.:  11.2
      thresh= 1.450E-04 alpha_mix =  0.700 |ddv_scf|^2 =  2.666E-06

      iter #   3 total cpu time :  5088.1 secs   av.it.:  10.4
      thresh= 1.633E-04 alpha_mix =  0.700 |ddv_scf|^2 =  3.051E-08

      iter #   4 total cpu time :  5097.5 secs   av.it.:  10.6
      thresh= 1.747E-05 alpha_mix =  0.700 |ddv_scf|^2 =  1.535E-10

      iter #   5 total cpu time :  5107.3 secs   av.it.:  10.9
      thresh= 1.239E-06 alpha_mix =  0.700 |ddv_scf|^2 =  3.891E-12

      iter #   6 total cpu time :  5119.0 secs   av.it.:  11.1
      thresh= 1.973E-07 alpha_mix =  0.700 |ddv_scf|^2 =  2.284E-14

      iter #   7 total cpu time :  5129.0 secs   av.it.:  10.9
      thresh= 1.511E-08 alpha_mix =  0.700 |ddv_scf|^2 =  2.513E-15

      iter #   8 total cpu time :  5138.9 secs   av.it.:  11.0
      thresh= 5.013E-09 alpha_mix =  0.700 |ddv_scf|^2 =  8.550E-17

     End of self-consistent calculation

     Convergence has been achieved 


     Representation #   6 mode #   6

     Self-consistent Calculation

      iter #   1 total cpu time :  5151.5 secs   av.it.:   6.3
      thresh= 1.000E-02 alpha_mix =  0.700 |ddv_scf|^2 =  9.880E-07

      iter #   2 total cpu time :  5161.3 secs   av.it.:  11.2
      thresh= 9.940E-05 alpha_mix =  0.700 |ddv_scf|^2 =  1.083E-06

      iter #   3 total cpu time :  5172.8 secs   av.it.:  10.3
      thresh= 1.041E-04 alpha_mix =  0.700 |ddv_scf|^2 =  2.653E-08

      iter #   4 total cpu time :  5182.5 secs   av.it.:  10.5
      thresh= 1.629E-05 alpha_mix =  0.700 |ddv_scf|^2 =  8.657E-11

      iter #   5 total cpu time :  5192.1 secs   av.it.:  10.9
      thresh= 9.305E-07 alpha_mix =  0.700 |ddv_scf|^2 =  1.630E-12

      iter #   6 total cpu time :  5202.1 secs   av.it.:  11.0
      thresh= 1.277E-07 alpha_mix =  0.700 |ddv_scf|^2 =  7.621E-15

      iter #   7 total cpu time :  5211.9 secs   av.it.:  11.0
      thresh= 8.730E-09 alpha_mix =  0.700 |ddv_scf|^2 =  4.355E-16

     End of self-consistent calculation

     Convergence has been achieved 
 
     Number of q in the star =   24
     List of q in the star:
          1   0.500000000  -0.166666667   0.833333333
          2   0.833333333   0.166666667   0.500000000
          3   0.500000000   0.166666667   0.833333333
          4  -0.833333333  -0.166666667   0.500000000
          5  -0.833333333  -0.166666667  -0.500000000
          6  -0.500000000  -0.166666667  -0.833333333
          7   0.833333333  -0.166666667   0.500000000
          8  -0.500000000  -0.166666667   0.833333333
          9  -0.833333333   0.166666667   0.500000000
         10   0.833333333   0.166666667  -0.500000000
         11   0.833333333  -0.166666667  -0.500000000
         12   0.500000000   0.166666667  -0.833333333
         13  -0.500000000   0.166666667   0.833333333
         14  -0.500000000   0.166666667  -0.833333333
         15  -0.833333333   0.166666667  -0.500000000
         16   0.833333333  -0.500000000   0.166666667
         17   0.833333333   0.500000000  -0.166666667
         18  -0.833333333  -0.500000000  -0.166666667
         19  -0.833333333   0.500000000   0.166666667
         20   0.166666667  -0.500000000   0.833333333
         21  -0.166666667   0.500000000   0.833333333
         22   0.166666667   0.500000000  -0.833333333
         23  -0.166666667  -0.500000000  -0.833333333
         24  -0.500000000   0.833333333   0.166666667

     Diagonalizing the dynamical matrix

     q = (    0.500000000  -0.166666667   0.833333333 ) 

 **************************************************************************
     freq (    1) =       5.051946 [THz] =     168.514793 [cm-1]
     freq (    2) =       6.066369 [THz] =     202.352295 [cm-1]
     freq (    3) =       9.812797 [THz] =     327.319674 [cm-1]
     freq (    4) =      11.453152 [THz] =     382.036022 [cm-1]
     freq (    5) =      14.042013 [THz] =     468.391120 [cm-1]
     freq (    6) =      14.270805 [THz] =     476.022823 [cm-1]
 **************************************************************************

     Calculation of q =   -0.3333333  -1.0000000   0.0000000
 
     Parallelization info
     --------------------
     sticks:   dense  smooth     PW     G-vecs:    dense   smooth      PW
     Min          31      31     10                  651      651     132
     Max          32      32     11                  654      654     135
     Sum        1003    1003    349                20875    20875    4279
 
     Using Slab Decomposition
 

     Title: 
     default                                                                    


     bravais-lattice index     =            2
     lattice parameter (alat)  =      10.1899  a.u.
     unit-cell volume          =     264.5151 (a.u.)^3
     number of atoms/cell      =            2
     number of atomic types    =            1
     number of electrons       =         8.00
     number of Kohn-Sham states=            4
     kinetic-energy cutoff     =      70.0000  Ry
     charge density cutoff     =     280.0000  Ry
     Exchange-correlation= PW
                           (   1   4   0   0   0   0   0)

     celldm(1)=  10.189905  celldm(2)=   0.000000  celldm(3)=   0.000000
     celldm(4)=   0.000000  celldm(5)=   0.000000  celldm(6)=   0.000000

     crystal axes: (cart. coord. in units of alat)
               a(1) = (  -0.500000   0.000000   0.500000 )  
               a(2) = (   0.000000   0.500000   0.500000 )  
               a(3) = (  -0.500000   0.500000   0.000000 )  

     reciprocal axes: (cart. coord. in units 2 pi/alat)
               b(1) = ( -1.000000 -1.000000  1.000000 )  
               b(2) = (  1.000000  1.000000  1.000000 )  
               b(3) = ( -1.000000  1.000000 -1.000000 )  


     PseudoPot. # 1 for Si read from file:
     ./pseudos/Si.nc.UPF
     MD5 check sum: 9e2d726316af3d4752eea8ab0afbb951
     Pseudo is Norm-conserving + core correction, Zval =  4.0
     Generated using ONCVPSP code by D. R. Hamann
     Using radial grid of 1510 points,  6 beta functions with: 
                l(1) =   0
                l(2) =   0
                l(3) =   1
                l(4) =   1
                l(5) =   2
                l(6) =   2

     atomic species   valence    mass     pseudopotential
        Si             4.00    28.08550     Si( 1.00)

     48 Sym. Ops., with inversion, found



   Cartesian axes

     site n.     atom                  positions (alat units)
         1           Si  tau(   1) = (   0.0000000   0.0000000   0.0000000  )
         2           Si  tau(   2) = (  -0.2500000   0.2500000   0.2500000  )

     number of k points=   432

     Number of k-points >= 100: set verbosity='high' to print them.

     Dense  grid:    20875 G-vectors     FFT dimensions: (  40,  40,  40)

     Estimated max dynamical RAM per process >       1.79 MB

     Estimated total dynamical RAM >      57.17 MB

     The potential is recalculated from file :
     /fastscratch/tsievers/QE_TMP_DIR/_ph0/silicon_ph_bench_nd_9_n_procs_32_3.save/charge-density

     Starting wfcs are    8 atomic wfcs

     Band Structure Calculation
     Davidson diagonalization with overlap
Abort(941182735) on node 0 (rank 0 in comm 0): Fatal error in PMPI_Comm_split: Other MPI error, error stack:
PMPI_Comm_split(495)................: MPI_Comm_split(comm=0xc400001c, color=0, key=0, new_comm=0x7ffc6e9254c8) failed
PMPI_Comm_split(477)................: 
MPIR_Comm_split_impl(246)...........: 
MPIR_Get_contextid_sparse_group(602): Too many communicators (32746/32768 free on this process; ignore_id=0)
Abort(605638415) on node 2 (rank 2 in comm 0): Fatal error in PMPI_Comm_split: Other MPI error, error stack:
PMPI_Comm_split(495)................: MPI_Comm_split(comm=0xc4000015, color=0, key=1, new_comm=0x7ffc50fcce48) failed
PMPI_Comm_split(477)................: 
MPIR_Comm_split_impl(246)...........: 
MPIR_Get_contextid_sparse_group(602): Too many communicators (32746/32768 free on this process; ignore_id=0)
Abort(270094095) on node 4 (rank 4 in comm 0): Fatal error in PMPI_Comm_split: Other MPI error, error stack:
PMPI_Comm_split(495)................: MPI_Comm_split(comm=0xc4000015, color=0, key=2, new_comm=0x7ffe7c58dc48) failed
PMPI_Comm_split(477)................: 
MPIR_Comm_split_impl(246)...........: 
MPIR_Get_contextid_sparse_group(602): Too many communicators (0/32768 free on this process; ignore_id=0)
Abort(941182735) on node 6 (rank 6 in comm 0): Fatal error in PMPI_Comm_split: Other MPI error, error stack:
PMPI_Comm_split(495)................: MPI_Comm_split(comm=0xc4000012, color=1, key=0, new_comm=0x7ffc6f9cebc8) failed
PMPI_Comm_split(477)................: 
MPIR_Comm_split_impl(246)...........: 
MPIR_Get_contextid_sparse_group(602): Too many communicators (32746/32768 free on this process; ignore_id=0)
Abort(1658639) on node 8 (rank 8 in comm 0): Fatal error in PMPI_Comm_split: Other MPI error, error stack:
PMPI_Comm_split(495)................: MPI_Comm_split(comm=0xc4000012, color=1, key=1, new_comm=0x7ffefb21b048) failed
PMPI_Comm_split(477)................: 
MPIR_Comm_split_impl(246)...........: 
MPIR_Get_contextid_sparse_group(602): Too many communicators (32746/32768 free on this process; ignore_id=0)
Abort(941182735) on node 10 (rank 10 in comm 0): Fatal error in PMPI_Comm_split: Other MPI error, error stack:
PMPI_Comm_split(495)................: MPI_Comm_split(comm=0xc4000015, color=1, key=2, new_comm=0x7fffb0fd8248) failed
PMPI_Comm_split(477)................: 
MPIR_Comm_split_impl(246)...........: 
MPIR_Get_contextid_sparse_group(602): Too many communicators (32746/32768 free on this process; ignore_id=0)
Abort(471420687) on node 12 (rank 12 in comm 0): Fatal error in PMPI_Comm_split: Other MPI error, error stack:
PMPI_Comm_split(495)................: MPI_Comm_split(comm=0xc4000015, color=2, key=0, new_comm=0x7fff4a24bdc8) failed
PMPI_Comm_split(477)................: 
MPIR_Comm_split_impl(246)...........: 
MPIR_Get_contextid_sparse_group(602): Too many communicators (32746/32768 free on this process; ignore_id=0)
Abort(538529551) on node 14 (rank 14 in comm 0): Fatal error in PMPI_Comm_split: Other MPI error, error stack:
PMPI_Comm_split(495)................: MPI_Comm_split(comm=0xc4000015, color=2, key=1, new_comm=0x7ffdc31d2e48) failed
PMPI_Comm_split(477)................: 
MPIR_Comm_split_impl(246)...........: 
MPIR_Get_contextid_sparse_group(602): Too many communicators (32746/32768 free on this process; ignore_id=0)
Abort(874073871) on node 16 (rank 16 in comm 0): Fatal error in PMPI_Comm_split: Other MPI error, error stack:
PMPI_Comm_split(495)................: MPI_Comm_split(comm=0xc4000012, color=2, key=2, new_comm=0x7ffe38959f48) failed
PMPI_Comm_split(477)................: 
MPIR_Comm_split_impl(246)...........: 
MPIR_Get_contextid_sparse_group(602): Too many communicators (32746/32768 free on this process; ignore_id=0)
Command exited with non-zero status 15
real 5231.43
user 94787.75
sys 1974.45
