Module for gcc 10.2:
(GNU C/C++/FORTRAN compilers v10.2.0) - loaded.
Module for OpenMPI 4.1.0-gcc10.2-infiniband loaded.
Module for OpenBLAS v.0.3.20 - loaded.

     Program PWSCF v.7.0 starts on  3Mar2022 at 11:49:53 

     This program is part of the open-source Quantum ESPRESSO suite
     for quantum simulation of materials; please cite
         "P. Giannozzi et al., J. Phys.:Condens. Matter 21 395502 (2009);
         "P. Giannozzi et al., J. Phys.:Condens. Matter 29 465901 (2017);
         "P. Giannozzi et al., J. Chem. Phys. 152 154105 (2020);
          URL http://www.quantum-espresso.org", 
     in publications or presentations arising from this work. More details at
     http://www.quantum-espresso.org/quote

     Parallel version (MPI), running on     2 processors

     MPI processes distributed on     1 nodes
     R & G space division:  proc/nbgrp/npool/nimage =       2
     27352 MiB available memory on the printing compute node when the environment starts

     Reading input from in_files/si_bench_2.scf

     Current dimensions of program PWSCF are:
     Max number of different atomic species (ntypx) = 10
     Max number of k-points (npk) =  40000
     Max angular momentum in pseudopotentials (lmaxx) =  4

     Subspace diagonalization in iterative solution of the eigenvalue problem:
     a serial algorithm will be used


     Parallelization info
     --------------------
     sticks:   dense  smooth     PW     G-vecs:    dense   smooth      PW
     Min         501     501    150                10436    10436    1738
     Max         502     502    151                10439    10439    1741
     Sum        1003    1003    301                20875    20875    3479

     Using Slab Decomposition



     bravais-lattice index     =            2
     lattice parameter (alat)  =      10.2000  a.u.
     unit-cell volume          =     265.3020 (a.u.)^3
     number of atoms/cell      =            2
     number of atomic types    =            1
     number of electrons       =         8.00
     number of Kohn-Sham states=            4
     kinetic-energy cutoff     =      70.0000  Ry
     charge density cutoff     =     280.0000  Ry
     scf convergence threshold =      1.0E-12
     mixing beta               =       0.7000
     number of iterations used =            8  plain     mixing
     Exchange-correlation= PBE
                           (   1   4   3   4   0   0   0)

     celldm(1)=  10.200000  celldm(2)=   0.000000  celldm(3)=   0.000000
     celldm(4)=   0.000000  celldm(5)=   0.000000  celldm(6)=   0.000000

     crystal axes: (cart. coord. in units of alat)
               a(1) = (  -0.500000   0.000000   0.500000 )  
               a(2) = (   0.000000   0.500000   0.500000 )  
               a(3) = (  -0.500000   0.500000   0.000000 )  

     reciprocal axes: (cart. coord. in units 2 pi/alat)
               b(1) = ( -1.000000 -1.000000  1.000000 )  
               b(2) = (  1.000000  1.000000  1.000000 )  
               b(3) = ( -1.000000  1.000000 -1.000000 )  


     PseudoPot. # 1 for Si read from file:
     ./pseudos/Si_pbe_v0.4.1.nc.sr.upf
     MD5 check sum: 02fab3f35e82123ef5bf1cb05d5b1a5e
     Pseudo is Norm-conserving + core correction, Zval =  4.0
     Generated using ONCVPSP code by D. R. Hamann
     Using radial grid of 1510 points,  6 beta functions with: 
                l(1) =   0
                l(2) =   0
                l(3) =   1
                l(4) =   1
                l(5) =   2
                l(6) =   2

     atomic species   valence    mass     pseudopotential
        Si             4.00    28.08600     Si( 1.00)

     48 Sym. Ops., with inversion, found (24 have fractional translation)



   Cartesian axes

     site n.     atom                  positions (alat units)
         1           Si  tau(   1) = (   0.0000000   0.0000000   0.0000000  )
         2           Si  tau(   2) = (   0.2500000   0.2500000   0.2500000  )

     number of k points=  1661

     Number of k-points >= 100: set verbosity='high' to print them.

     Dense  grid:    20875 G-vectors     FFT dimensions: (  40,  40,  40)

     Estimated max dynamical RAM per process >     142.02 MB

     Estimated total dynamical RAM >     284.03 MB

     Initial potential from superposition of free atoms

     starting charge       7.9988, renormalised to       8.0000
     Starting wfcs are    8 randomized atomic wfcs

     total cpu time spent up to now is       12.9 secs

     Self-consistent Calculation

     iteration #  1     ecut=    70.00 Ry     beta= 0.70
     Davidson diagonalization with overlap
     ethr =  1.00E-02,  avg # of iterations =  2.0

     Threshold (ethr) on eigenvalues was too large:
     Diagonalizing with lowered threshold

     Davidson diagonalization with overlap
     ethr =  5.86E-04,  avg # of iterations =  2.0

     total cpu time spent up to now is       57.0 secs

     total energy              =     -16.92149600 Ry
     estimated scf accuracy    <       0.05529989 Ry

     iteration #  2     ecut=    70.00 Ry     beta= 0.70
     Davidson diagonalization with overlap
     ethr =  6.91E-04,  avg # of iterations =  1.0

     total cpu time spent up to now is       74.3 secs

     total energy              =     -16.92319996 Ry
     estimated scf accuracy    <       0.00290989 Ry

     iteration #  3     ecut=    70.00 Ry     beta= 0.70
     Davidson diagonalization with overlap
     ethr =  3.64E-05,  avg # of iterations =  2.3

     total cpu time spent up to now is       97.6 secs

     total energy              =     -16.92386819 Ry
     estimated scf accuracy    <       0.00006634 Ry

     iteration #  4     ecut=    70.00 Ry     beta= 0.70
     Davidson diagonalization with overlap
     ethr =  8.29E-07,  avg # of iterations =  5.1

     total cpu time spent up to now is      130.2 secs

     total energy              =     -16.92395272 Ry
     estimated scf accuracy    <       0.00000027 Ry

     iteration #  5     ecut=    70.00 Ry     beta= 0.70
     Davidson diagonalization with overlap
     ethr =  3.32E-09,  avg # of iterations =  6.5

     total cpu time spent up to now is      169.5 secs

     total energy              =     -16.92395445 Ry
     estimated scf accuracy    <          8.4E-09 Ry

     iteration #  6     ecut=    70.00 Ry     beta= 0.70
     Davidson diagonalization with overlap
     ethr =  1.05E-10,  avg # of iterations =  3.7

     total cpu time spent up to now is      196.4 secs

     total energy              =     -16.92395445 Ry
     estimated scf accuracy    <          6.3E-10 Ry

     iteration #  7     ecut=    70.00 Ry     beta= 0.70
     Davidson diagonalization with overlap
     ethr =  7.90E-12,  avg # of iterations =  3.5

     total cpu time spent up to now is      222.7 secs

     total energy              =     -16.92395445 Ry
     estimated scf accuracy    <          1.1E-10 Ry

     iteration #  8     ecut=    70.00 Ry     beta= 0.70
     Davidson diagonalization with overlap
     ethr =  1.40E-12,  avg # of iterations =  2.3

     total cpu time spent up to now is      244.4 secs

     End of self-consistent calculation

     Number of k-points >= 100: set verbosity='high' to print the bands.

     highest occupied level (ev):     6.4228

!    total energy              =     -16.92395445 Ry
     estimated scf accuracy    <          2.1E-13 Ry

     The total energy is the sum of the following terms:
     one-electron contribution =       5.10086344 Ry
     hartree contribution      =       1.07923935 Ry
     xc contribution           =      -6.20429867 Ry
     ewald contribution        =     -16.89975857 Ry

     convergence has been achieved in   8 iterations

     Writing all to output data dir /fastscratch/tsievers/QE_TMP_DIR/silicon_bench_nprocs_openblas_2.save/

     init_run     :     12.47s CPU     12.85s WALL (       1 calls)
     electrons    :    224.91s CPU    231.51s WALL (       1 calls)

     Called by init_run:
     wfcinit      :     12.03s CPU     12.40s WALL (       1 calls)
     potinit      :      0.03s CPU      0.03s WALL (       1 calls)
     hinit0       :      0.21s CPU      0.21s WALL (       1 calls)

     Called by electrons:
     c_bands      :    197.86s CPU    203.62s WALL (       9 calls)
     sum_band     :     26.87s CPU     27.67s WALL (       9 calls)
     v_of_rho     :      0.18s CPU      0.18s WALL (       9 calls)
     mix_rho      :      0.02s CPU      0.02s WALL (       9 calls)

     Called by c_bands:
     init_us_2    :     14.17s CPU     14.60s WALL (   31559 calls)
     init_us_2:cp :     14.10s CPU     14.55s WALL (   31559 calls)
     cegterg      :    167.01s CPU    171.86s WALL (   14949 calls)

     Called by *egterg:
     cdiaghg      :      1.91s CPU      1.98s WALL (   60395 calls)
     h_psi        :    158.43s CPU    163.07s WALL (   63717 calls)
     g_psi        :      1.39s CPU      1.43s WALL (   47107 calls)

     Called by h_psi:
     h_psi:calbec :     10.66s CPU     10.96s WALL (   63717 calls)
     vloc_psi     :    136.58s CPU    140.60s WALL (   63717 calls)
     add_vuspsi   :     10.46s CPU     10.78s WALL (   63717 calls)

     General routines
     calbec       :     10.52s CPU     10.86s WALL (   63717 calls)
     fft          :      0.19s CPU      0.19s WALL (      91 calls)
     ffts         :      0.00s CPU      0.00s WALL (       9 calls)
     fftw         :    138.16s CPU    142.22s WALL (  492478 calls)

     Parallel routines

     PWSCF        :   3m57.92s CPU   4m26.58s WALL


   This run was terminated on:  11:54:19   3Mar2022            

=------------------------------------------------------------------------------=
   JOB DONE.
=------------------------------------------------------------------------------=
