Module for gcc 10.2:
(GNU C/C++/FORTRAN compilers v10.2.0) - loaded.
Module for OpenMPI 4.1.0-gcc10.2-infiniband loaded.

     Program PWSCF v.7.0 starts on 12Feb2022 at  5:47:44 

     This program is part of the open-source Quantum ESPRESSO suite
     for quantum simulation of materials; please cite
         "P. Giannozzi et al., J. Phys.:Condens. Matter 21 395502 (2009);
         "P. Giannozzi et al., J. Phys.:Condens. Matter 29 465901 (2017);
         "P. Giannozzi et al., J. Chem. Phys. 152 154105 (2020);
          URL http://www.quantum-espresso.org", 
     in publications or presentations arising from this work. More details at
     http://www.quantum-espresso.org/quote

     Parallel version (MPI), running on    22 processors

     MPI processes distributed on     2 nodes
     R & G space division:  proc/nbgrp/npool/nimage =      22
     54466 MiB available memory on the printing compute node when the environment starts

     Reading input from in_files/TaS2_bench_22.scf

     Current dimensions of program PWSCF are:
     Max number of different atomic species (ntypx) = 10
     Max number of k-points (npk) =  40000
     Max angular momentum in pseudopotentials (lmaxx) =  4

     Subspace diagonalization in iterative solution of the eigenvalue problem:
     a serial algorithm will be used


     Parallelization info
     --------------------
     sticks:   dense  smooth     PW     G-vecs:    dense   smooth      PW
     Min          49      25      7                 5994     2121     341
     Max          51      26      8                 6007     2129     356
     Sum        1099     559    163               132031    46753    7647

     Using Slab Decomposition



     bravais-lattice index     =            4
     lattice parameter (alat)  =       6.3117  a.u.
     unit-cell volume          =     977.9382 (a.u.)^3
     number of atoms/cell      =            3
     number of atomic types    =            2
     number of electrons       =        25.00
     number of Kohn-Sham states=           17
     kinetic-energy cutoff     =      50.0000  Ry
     charge density cutoff     =     400.0000  Ry
     scf convergence threshold =      1.0E-18
     mixing beta               =       0.7000
     number of iterations used =            8  plain     mixing
     Exchange-correlation=  SLA  PW   PBX  PBC
                           (   1   4   3   4   0   0   0)

     celldm(1)=   6.311685  celldm(2)=   0.000000  celldm(3)=   4.491018
     celldm(4)=   0.000000  celldm(5)=   0.000000  celldm(6)=   0.000000

     crystal axes: (cart. coord. in units of alat)
               a(1) = (   1.000000   0.000000   0.000000 )  
               a(2) = (  -0.500000   0.866025   0.000000 )  
               a(3) = (   0.000000   0.000000   4.491018 )  

     reciprocal axes: (cart. coord. in units 2 pi/alat)
               b(1) = (  1.000000  0.577350 -0.000000 )  
               b(2) = (  0.000000  1.154701  0.000000 )  
               b(3) = (  0.000000 -0.000000  0.222667 )  


     PseudoPot. # 1 for Ta read from file:
     ./pseudos/Ta_pbe_v1.uspp.F.UPF
     MD5 check sum: f8bbe9446314a3b8ea5d9f3e3836c939
     Pseudo is Ultrasoft + core correction, Zval = 13.0
     Generated by new atomic code, or converted to UPF format
     Using radial grid of  921 points,  7 beta functions with: 
                l(1) =   0
                l(2) =   0
                l(3) =   1
                l(4) =   1
                l(5) =   2
                l(6) =   2
                l(7) =   3
     Q(r) pseudized with  6 coefficients,  rinner =    1.300   1.300   1.300
                                                       1.300   1.300   1.300
                                                       1.300

     PseudoPot. # 2 for S  read from file:
     ./pseudos/s_pbe_v1.4.uspp.F.UPF
     MD5 check sum: 88d86576ff6df21479756cfb9bdac1df
     Pseudo is Ultrasoft + core correction, Zval =  6.0
     Generated by new atomic code, or converted to UPF format
     Using radial grid of  907 points,  6 beta functions with: 
                l(1) =   0
                l(2) =   0
                l(3) =   1
                l(4) =   1
                l(5) =   2
                l(6) =   2
     Q(r) pseudized with  8 coefficients,  rinner =    1.300   1.300   1.300
                                                       1.300   1.300

     atomic species   valence    mass     pseudopotential
        Ta            13.00   180.95000     Ta( 1.00)
        S              6.00    32.06000     S ( 1.00)

     12 Sym. Ops. (no inversion) found



   Cartesian axes

     site n.     atom                  positions (alat units)
         1           S   tau(   1) = (  -0.0000000   0.5773503   0.4679075  )
         2           Ta  tau(   2) = (   0.0000000   0.0000000   0.0000000  )
         3           S   tau(   3) = (  -0.0000000   0.5773503  -0.4679075  )

     number of k points=   217  Marzari-Vanderbilt smearing, width (Ry)=  0.0020

     Number of k-points >= 100: set verbosity='high' to print them.

     Dense  grid:   132031 G-vectors     FFT dimensions: (  45,  45, 192)

     Smooth grid:    46753 G-vectors     FFT dimensions: (  30,  30, 128)

     Estimated max dynamical RAM per process >      57.51 MB

     Estimated total dynamical RAM >       1.24 GB
 ----2D----2D----2D----2D----2D----2D----2D----2D----2D----2D----2D----2D
  The code is running with the 2D cutoff
  Please refer to:
  Sohier, T., Calandra, M., & Mauri, F. (2017), 
  Density functional perturbation theory for gated two-dimensional heterostructures:
  Theoretical developments and application to flexural phonons in graphene.
  Physical Review B, 96(7), 75448. https://doi.org/10.1103/PhysRevB.96.075448
 ----2D----2D----2D----2D----2D----2D----2D----2D----2D----2D----2D----2D

     Initial potential from superposition of free atoms

     starting charge      24.9988, renormalised to      25.0000

     negative rho (up, down):  9.496E-02 0.000E+00
     Starting wfcs are   21 randomized atomic wfcs

     total cpu time spent up to now is        5.1 secs

     Self-consistent Calculation

     iteration #  1     ecut=    50.00 Ry     beta= 0.70
     Davidson diagonalization with overlap
     ethr =  1.00E-02,  avg # of iterations =  3.1

     Threshold (ethr) on eigenvalues was too large:
     Diagonalizing with lowered threshold

     Davidson diagonalization with overlap
     ethr =  5.45E-04,  avg # of iterations =  2.9

     negative rho (up, down):  9.869E-02 0.000E+00

     total cpu time spent up to now is       25.6 secs

     total energy              =    -190.25447797 Ry
     estimated scf accuracy    <       0.14561231 Ry

     iteration #  2     ecut=    50.00 Ry     beta= 0.70
     Davidson diagonalization with overlap
     ethr =  5.82E-04,  avg # of iterations =  2.1

     negative rho (up, down):  9.950E-02 0.000E+00

     total cpu time spent up to now is       36.6 secs

     total energy              =    -190.22271090 Ry
     estimated scf accuracy    <       0.38125441 Ry

     iteration #  3     ecut=    50.00 Ry     beta= 0.70
     Davidson diagonalization with overlap
     ethr =  5.82E-04,  avg # of iterations =  2.0

     negative rho (up, down):  1.002E-01 0.000E+00

     total cpu time spent up to now is       46.5 secs

     total energy              =    -190.30427540 Ry
     estimated scf accuracy    <       0.05121109 Ry

     iteration #  4     ecut=    50.00 Ry     beta= 0.70
     Davidson diagonalization with overlap
     ethr =  2.05E-04,  avg # of iterations =  2.0

     negative rho (up, down):  1.010E-01 0.000E+00

     total cpu time spent up to now is       55.3 secs

     total energy              =    -190.31089855 Ry
     estimated scf accuracy    <       0.00103839 Ry

     iteration #  5     ecut=    50.00 Ry     beta= 0.70
     Davidson diagonalization with overlap
     ethr =  4.15E-06,  avg # of iterations =  4.7

     negative rho (up, down):  1.010E-01 0.000E+00

     total cpu time spent up to now is       69.0 secs

     total energy              =    -190.31142505 Ry
     estimated scf accuracy    <       0.00063116 Ry

     iteration #  6     ecut=    50.00 Ry     beta= 0.70
     Davidson diagonalization with overlap
     ethr =  2.52E-06,  avg # of iterations =  2.0

     negative rho (up, down):  1.011E-01 0.000E+00

     total cpu time spent up to now is       78.0 secs

     total energy              =    -190.31146105 Ry
     estimated scf accuracy    <       0.00005343 Ry

     iteration #  7     ecut=    50.00 Ry     beta= 0.70
     Davidson diagonalization with overlap
     ethr =  2.14E-07,  avg # of iterations =  3.6

     negative rho (up, down):  1.011E-01 0.000E+00

     total cpu time spent up to now is       89.0 secs

     total energy              =    -190.31148276 Ry
     estimated scf accuracy    <       0.00000742 Ry

     iteration #  8     ecut=    50.00 Ry     beta= 0.70
     Davidson diagonalization with overlap
     ethr =  2.97E-08,  avg # of iterations =  2.9

     negative rho (up, down):  1.011E-01 0.000E+00

     total cpu time spent up to now is       99.4 secs

     total energy              =    -190.31148501 Ry
     estimated scf accuracy    <       0.00000005 Ry

     iteration #  9     ecut=    50.00 Ry     beta= 0.70
     Davidson diagonalization with overlap
     ethr =  1.84E-10,  avg # of iterations =  7.0

     negative rho (up, down):  1.011E-01 0.000E+00

     total cpu time spent up to now is      119.5 secs

     total energy              =    -190.31148512 Ry
     estimated scf accuracy    <       0.00000042 Ry

     iteration # 10     ecut=    50.00 Ry     beta= 0.70
     Davidson diagonalization with overlap
     ethr =  1.84E-10,  avg # of iterations =  3.0

     negative rho (up, down):  1.011E-01 0.000E+00

     total cpu time spent up to now is      130.8 secs

     total energy              =    -190.31148519 Ry
     estimated scf accuracy    <          1.4E-09 Ry

     iteration # 11     ecut=    50.00 Ry     beta= 0.70
     Davidson diagonalization with overlap
     ethr =  5.70E-12,  avg # of iterations =  4.8

     negative rho (up, down):  1.011E-01 0.000E+00

     total cpu time spent up to now is      145.1 secs

     total energy              =    -190.31148518 Ry
     estimated scf accuracy    <       0.00000004 Ry

     iteration # 12     ecut=    50.00 Ry     beta= 0.70
     Davidson diagonalization with overlap
     ethr =  5.70E-12,  avg # of iterations =  3.6

     negative rho (up, down):  1.011E-01 0.000E+00

     total cpu time spent up to now is      157.5 secs

     total energy              =    -190.31148519 Ry
     estimated scf accuracy    <          3.1E-10 Ry

     iteration # 13     ecut=    50.00 Ry     beta= 0.70
     Davidson diagonalization with overlap
     ethr =  1.25E-12,  avg # of iterations =  3.0

     negative rho (up, down):  1.011E-01 0.000E+00

     total cpu time spent up to now is      168.0 secs

     total energy              =    -190.31148519 Ry
     estimated scf accuracy    <          1.5E-11 Ry

     iteration # 14     ecut=    50.00 Ry     beta= 0.70
     Davidson diagonalization with overlap
     ethr =  1.00E-13,  avg # of iterations =  2.7

     negative rho (up, down):  1.011E-01 0.000E+00

     total cpu time spent up to now is      178.0 secs

     total energy              =    -190.31148519 Ry
     estimated scf accuracy    <          1.7E-13 Ry

     iteration # 15     ecut=    50.00 Ry     beta= 0.70
     Davidson diagonalization with overlap
     ethr =  1.00E-13,  avg # of iterations =  1.0

     negative rho (up, down):  1.011E-01 0.000E+00

     total cpu time spent up to now is      186.2 secs

     total energy              =    -190.31148519 Ry
     estimated scf accuracy    <          1.2E-12 Ry

     iteration # 16     ecut=    50.00 Ry     beta= 0.70
     Davidson diagonalization with overlap
     ethr =  1.00E-13,  avg # of iterations =  1.0

     negative rho (up, down):  1.011E-01 0.000E+00

     total cpu time spent up to now is      194.3 secs

     total energy              =    -190.31148519 Ry
     estimated scf accuracy    <          1.3E-13 Ry

     iteration # 17     ecut=    50.00 Ry     beta= 0.70
     Davidson diagonalization with overlap
     ethr =  1.00E-13,  avg # of iterations =  1.0

     negative rho (up, down):  1.011E-01 0.000E+00

     total cpu time spent up to now is      202.4 secs

     total energy              =    -190.31148519 Ry
     estimated scf accuracy    <          1.2E-14 Ry

     iteration # 18     ecut=    50.00 Ry     beta= 0.70
     Davidson diagonalization with overlap
     ethr =  1.00E-13,  avg # of iterations =  1.0

     negative rho (up, down):  1.011E-01 0.000E+00

     total cpu time spent up to now is      210.6 secs

     total energy              =    -190.31148519 Ry
     estimated scf accuracy    <          8.5E-15 Ry

     iteration # 19     ecut=    50.00 Ry     beta= 0.70
     Davidson diagonalization with overlap
     ethr =  1.00E-13,  avg # of iterations =  1.0

     negative rho (up, down):  1.011E-01 0.000E+00

     total cpu time spent up to now is      218.7 secs

     total energy              =    -190.31148519 Ry
     estimated scf accuracy    <          9.3E-15 Ry

     iteration # 20     ecut=    50.00 Ry     beta= 0.70
     Davidson diagonalization with overlap
     ethr =  1.00E-13,  avg # of iterations =  1.0

     negative rho (up, down):  1.011E-01 0.000E+00

     total cpu time spent up to now is      226.8 secs

     total energy              =    -190.31148519 Ry
     estimated scf accuracy    <          2.9E-15 Ry

     iteration # 21     ecut=    50.00 Ry     beta= 0.70
     Davidson diagonalization with overlap
     ethr =  1.00E-13,  avg # of iterations =  1.0

     negative rho (up, down):  1.011E-01 0.000E+00

     total cpu time spent up to now is      235.0 secs

     total energy              =    -190.31148519 Ry
     estimated scf accuracy    <          1.3E-17 Ry

     iteration # 22     ecut=    50.00 Ry     beta= 0.70
     Davidson diagonalization with overlap
     ethr =  1.00E-13,  avg # of iterations =  1.0

     negative rho (up, down):  1.011E-01 0.000E+00

     total cpu time spent up to now is      243.1 secs

     total energy              =    -190.31148519 Ry
     estimated scf accuracy    <          3.3E-17 Ry

     iteration # 23     ecut=    50.00 Ry     beta= 0.70
     Davidson diagonalization with overlap
     ethr =  1.00E-13,  avg # of iterations =  1.0

     negative rho (up, down):  1.011E-01 0.000E+00

     total cpu time spent up to now is      251.2 secs

     total energy              =    -190.31148519 Ry
     estimated scf accuracy    <          3.9E-17 Ry

     iteration # 24     ecut=    50.00 Ry     beta= 0.70
     Davidson diagonalization with overlap
     ethr =  1.00E-13,  avg # of iterations =  1.0

     negative rho (up, down):  1.011E-01 0.000E+00

     total cpu time spent up to now is      259.4 secs

     total energy              =    -190.31148519 Ry
     estimated scf accuracy    <          1.3E-17 Ry

     iteration # 25     ecut=    50.00 Ry     beta= 0.70
     Davidson diagonalization with overlap
     ethr =  1.00E-13,  avg # of iterations =  1.0

     negative rho (up, down):  1.011E-01 0.000E+00

     total cpu time spent up to now is      267.5 secs

     total energy              =    -190.31148519 Ry
     estimated scf accuracy    <          5.0E-18 Ry

     iteration # 26     ecut=    50.00 Ry     beta= 0.70
     Davidson diagonalization with overlap
     ethr =  1.00E-13,  avg # of iterations =  1.0

     negative rho (up, down):  1.011E-01 0.000E+00

     total cpu time spent up to now is      275.6 secs

     total energy              =    -190.31148519 Ry
     estimated scf accuracy    <          4.8E-18 Ry

     iteration # 27     ecut=    50.00 Ry     beta= 0.70
     Davidson diagonalization with overlap
     ethr =  1.00E-13,  avg # of iterations =  1.0

     negative rho (up, down):  1.011E-01 0.000E+00

     total cpu time spent up to now is      283.7 secs

     total energy              =    -190.31148519 Ry
     estimated scf accuracy    <          1.7E-18 Ry

     iteration # 28     ecut=    50.00 Ry     beta= 0.70
     Davidson diagonalization with overlap
     ethr =  1.00E-13,  avg # of iterations =  1.0

     negative rho (up, down):  1.011E-01 0.000E+00

     total cpu time spent up to now is      291.8 secs

     End of self-consistent calculation

     Number of k-points >= 100: set verbosity='high' to print the bands.

     the Fermi energy is    -5.9182 ev

!    total energy              =    -190.31148519 Ry
     estimated scf accuracy    <          6.5E-20 Ry
     smearing contrib. (-TS)   =       0.00000705 Ry
     internal energy E=F+TS    =    -190.31149224 Ry

     The total energy is F=E-TS. E is the sum of the following terms:
     one-electron contribution =   -1044.74925538 Ry
     hartree contribution      =     517.61800544 Ry
     xc contribution           =     -59.14415725 Ry
     ewald contribution        =     395.96391495 Ry

     convergence has been achieved in  28 iterations

     Writing all to output data dir /fastscratch/tsievers/QE_TMP_DIR/TaS2_bench_nprocs_48x48_22.save/

     init_run     :      3.65s CPU      4.79s WALL (       1 calls)
     electrons    :    213.01s CPU    286.75s WALL (       1 calls)

     Called by init_run:
     wfcinit      :      2.80s CPU      3.84s WALL (       1 calls)
     potinit      :      0.24s CPU      0.24s WALL (       1 calls)
     hinit0       :      0.50s CPU      0.56s WALL (       1 calls)

     Called by electrons:
     c_bands      :    179.07s CPU    240.82s WALL (      29 calls)
     sum_band     :     30.91s CPU     42.41s WALL (      29 calls)
     v_of_rho     :      0.71s CPU      0.94s WALL (      29 calls)
     newd         :      2.04s CPU      2.13s WALL (      29 calls)
     mix_rho      :      0.24s CPU      0.36s WALL (      29 calls)

     Called by c_bands:
     init_us_2    :      2.19s CPU      2.80s WALL (   12803 calls)
     init_us_2:cp :      2.16s CPU      2.78s WALL (   12803 calls)
     cegterg      :    171.64s CPU    231.84s WALL (    6293 calls)

     Called by *egterg:
     cdiaghg      :      6.44s CPU      7.86s WALL (   19820 calls)
     h_psi        :    133.54s CPU    185.42s WALL (   20254 calls)
     s_psi        :      6.57s CPU      8.31s WALL (   20254 calls)
     g_psi        :      0.31s CPU      0.37s WALL (   13744 calls)

     Called by h_psi:
     h_psi:calbec :      9.25s CPU     13.02s WALL (   20254 calls)
     vloc_psi     :    117.86s CPU    163.83s WALL (   20254 calls)
     add_vuspsi   :      6.23s CPU      8.32s WALL (   20254 calls)

     General routines
     calbec       :     12.73s CPU     17.90s WALL (   26547 calls)
     fft          :      0.91s CPU      1.23s WALL (     376 calls)
     ffts         :      0.16s CPU      0.18s WALL (      58 calls)
     fftw         :    137.87s CPU    191.93s WALL (  639587 calls)
     interpolate  :      0.21s CPU      0.23s WALL (      29 calls)

     Parallel routines

     PWSCF        :   3m44.45s CPU   5m 8.68s WALL


   This run was terminated on:   5:52:53  12Feb2022            

=------------------------------------------------------------------------------=
   JOB DONE.
=------------------------------------------------------------------------------=
