Module for intel-oneAPI 2021.4 loaded.
 
:: initializing oneAPI environment ...
   3071186: BASH_VERSION = 4.4.20(1)-release
:: advisor -- latest
:: ccl -- latest
:: clck -- latest
:: compiler -- latest
:: dal -- latest
:: debugger -- latest
:: dev-utilities -- latest
:: dnnl -- latest
:: dpcpp-ct -- latest
:: dpl -- latest
:: inspector -- latest
:: intelpython -- latest
:: ipp -- latest
:: ippcp -- latest
:: ipp -- latest
:: itac -- latest
:: LPOT -- latest
:: mkl -- latest
:: modelzoo -- latest
:: mpi -- latest
:: pytorch -- latest
:: tbb -- latest
:: tensorflow -- latest
:: vpl -- latest
:: vtune -- latest
:: oneAPI environment initialized ::
 

     Program PWSCF v.7.0 starts on 27Jun2022 at 18:35:10 

     This program is part of the open-source Quantum ESPRESSO suite
     for quantum simulation of materials; please cite
         "P. Giannozzi et al., J. Phys.:Condens. Matter 21 395502 (2009);
         "P. Giannozzi et al., J. Phys.:Condens. Matter 29 465901 (2017);
         "P. Giannozzi et al., J. Chem. Phys. 152 154105 (2020);
          URL http://www.quantum-espresso.org", 
     in publications or presentations arising from this work. More details at
     http://www.quantum-espresso.org/quote

     Parallel version (MPI), running on    28 processors

     MPI processes distributed on     2 nodes
     R & G space division:  proc/nbgrp/npool/nimage =      28
     58474 MiB available memory on the printing compute node when the environment starts
 
     Reading input from in_files/silicon_ph_bench_nd_4_n_procs_28_1.scf

     Current dimensions of program PWSCF are:
     Max number of different atomic species (ntypx) = 10
     Max number of k-points (npk) =  40000
     Max angular momentum in pseudopotentials (lmaxx) =  4

     Subspace diagonalization in iterative solution of the eigenvalue problem:
     one sub-group per band group will be used
     scalapack distributed-memory algorithm (size of sub-group:  2*  2 procs)

 
     Parallelization info
     --------------------
     sticks:   dense  smooth     PW     G-vecs:    dense   smooth      PW
     Min          35      35     10                  744      744     122
     Max          36      36     11                  747      747     126
     Sum        1003    1003    301                20875    20875    3479
 
     Using Slab Decomposition
 


     bravais-lattice index     =            2
     lattice parameter (alat)  =      10.1899  a.u.
     unit-cell volume          =     264.5151 (a.u.)^3
     number of atoms/cell      =            2
     number of atomic types    =            1
     number of electrons       =         8.00
     number of Kohn-Sham states=            4
     kinetic-energy cutoff     =      70.0000  Ry
     charge density cutoff     =     280.0000  Ry
     scf convergence threshold =      1.0E-10
     mixing beta               =       0.7000
     number of iterations used =            8  plain     mixing
     Exchange-correlation= SLA  PW   NOGX NOGC
                           (   1   4   0   0   0   0   0)

     celldm(1)=  10.189905  celldm(2)=   0.000000  celldm(3)=   0.000000
     celldm(4)=   0.000000  celldm(5)=   0.000000  celldm(6)=   0.000000

     crystal axes: (cart. coord. in units of alat)
               a(1) = (  -0.500000   0.000000   0.500000 )  
               a(2) = (   0.000000   0.500000   0.500000 )  
               a(3) = (  -0.500000   0.500000   0.000000 )  

     reciprocal axes: (cart. coord. in units 2 pi/alat)
               b(1) = ( -1.000000 -1.000000  1.000000 )  
               b(2) = (  1.000000  1.000000  1.000000 )  
               b(3) = ( -1.000000  1.000000 -1.000000 )  


     PseudoPot. # 1 for Si read from file:
     ./pseudos/Si.nc.UPF
     MD5 check sum: 9e2d726316af3d4752eea8ab0afbb951
     Pseudo is Norm-conserving + core correction, Zval =  4.0
     Generated using ONCVPSP code by D. R. Hamann
     Using radial grid of 1510 points,  6 beta functions with: 
                l(1) =   0
                l(2) =   0
                l(3) =   1
                l(4) =   1
                l(5) =   2
                l(6) =   2

     atomic species   valence    mass     pseudopotential
        Si             4.00    28.08550     Si( 1.00)

     48 Sym. Ops., with inversion, found (24 have fractional translation)



   Cartesian axes

     site n.     atom                  positions (alat units)
         1           Si  tau(   1) = (   0.0000000   0.0000000   0.0000000  )
         2           Si  tau(   2) = (  -0.2500000   0.2500000   0.2500000  )

     number of k points=    28
                       cart. coord. in units 2pi/alat
        k(    1) = (  -0.0833333   0.0833333   0.0833333), wk =   0.0185185
        k(    2) = (  -0.2500000   0.2500000  -0.0833333), wk =   0.0555556
        k(    3) = (  -0.4166667   0.4166667  -0.2500000), wk =   0.0555556
        k(    4) = (   0.4166667  -0.4166667   0.5833333), wk =   0.0555556
        k(    5) = (   0.2500000  -0.2500000   0.4166667), wk =   0.0555556
        k(    6) = (   0.0833333  -0.0833333   0.2500000), wk =   0.0555556
        k(    7) = (  -0.0833333   0.4166667   0.0833333), wk =   0.0555556
        k(    8) = (  -0.2500000   0.5833333  -0.0833333), wk =   0.1111111
        k(    9) = (   0.5833333  -0.2500000   0.7500000), wk =   0.1111111
        k(   10) = (   0.4166667  -0.0833333   0.5833333), wk =   0.1111111
        k(   11) = (   0.2500000   0.0833333   0.4166667), wk =   0.1111111
        k(   12) = (  -0.0833333   0.7500000   0.0833333), wk =   0.0555556
        k(   13) = (   0.7500000  -0.0833333   0.9166667), wk =   0.1111111
        k(   14) = (   0.5833333   0.0833333   0.7500000), wk =   0.1111111
        k(   15) = (   0.4166667   0.2500000   0.5833333), wk =   0.1111111
        k(   16) = (  -0.0833333  -0.9166667   0.0833333), wk =   0.0555556
        k(   17) = (  -0.2500000  -0.7500000  -0.0833333), wk =   0.1111111
        k(   18) = (  -0.0833333  -0.5833333   0.0833333), wk =   0.0555556
        k(   19) = (  -0.2500000   0.2500000   0.2500000), wk =   0.0185185
        k(   20) = (  -0.4166667   0.4166667   0.0833333), wk =   0.0555556
        k(   21) = (   0.4166667  -0.4166667   0.9166667), wk =   0.0555556
        k(   22) = (   0.2500000  -0.2500000   0.7500000), wk =   0.0555556
        k(   23) = (  -0.2500000   0.5833333   0.2500000), wk =   0.0555556
        k(   24) = (   0.5833333  -0.2500000   1.0833333), wk =   0.1111111
        k(   25) = (   0.4166667  -0.0833333   0.9166667), wk =   0.1111111
        k(   26) = (  -0.2500000  -1.0833333   0.2500000), wk =   0.0555556
        k(   27) = (  -0.4166667   0.4166667   0.4166667), wk =   0.0185185
        k(   28) = (   0.4166667  -0.4166667   1.2500000), wk =   0.0555556

     Dense  grid:    20875 G-vectors     FFT dimensions: (  40,  40,  40)

     Estimated max dynamical RAM per process >       2.12 MB

     Estimated total dynamical RAM >      59.22 MB

     Initial potential from superposition of free atoms

     starting charge       7.9989, renormalised to       8.0000
     Starting wfcs are    8 randomized atomic wfcs

     total cpu time spent up to now is        0.4 secs

     Self-consistent Calculation

     iteration #  1     ecut=    70.00 Ry     beta= 0.70
     Davidson diagonalization with overlap
     ethr =  1.00E-02,  avg # of iterations =  2.0

     Threshold (ethr) on eigenvalues was too large:
     Diagonalizing with lowered threshold

     Davidson diagonalization with overlap
     ethr =  6.12E-04,  avg # of iterations =  2.0

     total cpu time spent up to now is        0.7 secs

     total energy              =     -17.04762302 Ry
     estimated scf accuracy    <       0.05797262 Ry

     iteration #  2     ecut=    70.00 Ry     beta= 0.70
     Davidson diagonalization with overlap
     ethr =  7.25E-04,  avg # of iterations =  1.0

     total cpu time spent up to now is        0.8 secs

     total energy              =     -17.04995156 Ry
     estimated scf accuracy    <       0.00249782 Ry

     iteration #  3     ecut=    70.00 Ry     beta= 0.70
     Davidson diagonalization with overlap
     ethr =  3.12E-05,  avg # of iterations =  3.0

     total cpu time spent up to now is        1.0 secs

     total energy              =     -17.05082808 Ry
     estimated scf accuracy    <       0.00009833 Ry

     iteration #  4     ecut=    70.00 Ry     beta= 0.70
     Davidson diagonalization with overlap
     ethr =  1.23E-06,  avg # of iterations =  4.4

     total cpu time spent up to now is        1.3 secs

     total energy              =     -17.05089836 Ry
     estimated scf accuracy    <       0.00000362 Ry

     iteration #  5     ecut=    70.00 Ry     beta= 0.70
     Davidson diagonalization with overlap
     ethr =  4.52E-08,  avg # of iterations =  4.1

     total cpu time spent up to now is        1.6 secs

     total energy              =     -17.05090098 Ry
     estimated scf accuracy    <       0.00000013 Ry

     iteration #  6     ecut=    70.00 Ry     beta= 0.70
     Davidson diagonalization with overlap
     ethr =  1.60E-09,  avg # of iterations =  4.0

     total cpu time spent up to now is        1.8 secs

     total energy              =     -17.05090106 Ry
     estimated scf accuracy    <       0.00000001 Ry

     iteration #  7     ecut=    70.00 Ry     beta= 0.70
     Davidson diagonalization with overlap
     ethr =  1.57E-10,  avg # of iterations =  3.3

     total cpu time spent up to now is        2.0 secs

     total energy              =     -17.05090107 Ry
     estimated scf accuracy    <          2.2E-10 Ry

     iteration #  8     ecut=    70.00 Ry     beta= 0.70
     Davidson diagonalization with overlap
     ethr =  2.81E-12,  avg # of iterations =  5.0

     total cpu time spent up to now is        2.3 secs

     End of self-consistent calculation

          k =-0.0833 0.0833 0.0833 (  2667 PWs)   bands (ev):

    -5.7561   5.3866   6.1106   6.1106

          k =-0.2500 0.2500-0.0833 (  2621 PWs)   bands (ev):

    -5.2692   3.2786   4.8359   5.9020

          k =-0.4167 0.4167-0.2500 (  2618 PWs)   bands (ev):

    -4.1491   0.4558   4.3704   5.2525

          k = 0.4167-0.4167 0.5833 (  2604 PWs)   bands (ev):

    -3.4239  -0.7236   4.4440   4.8611

          k = 0.2500-0.2500 0.4167 (  2618 PWs)   bands (ev):

    -4.5726   1.3222   4.9163   4.9542

          k = 0.0833-0.0833 0.2500 (  2643 PWs)   bands (ev):

    -5.5104   4.3092   5.4446   5.6431

          k =-0.0833 0.4167 0.0833 (  2627 PWs)   bands (ev):

    -5.0231   3.1094   4.6844   4.6977

          k =-0.2500 0.5833-0.0833 (  2613 PWs)   bands (ev):

    -4.0918   1.2428   3.3199   4.3008

          k = 0.5833-0.2500 0.7500 (  2616 PWs)   bands (ev):

    -2.9383  -0.5645   2.7090   4.0651

          k = 0.4167-0.0833 0.5833 (  2617 PWs)   bands (ev):

    -3.6856   0.5301   2.6549   4.5685

          k = 0.2500 0.0833 0.4167 (  2624 PWs)   bands (ev):

    -4.7922   2.2460   4.0374   5.2604

          k =-0.0833 0.7500 0.0833 (  2617 PWs)   bands (ev):

    -3.3665   0.4197   3.2861   3.6484

          k = 0.7500-0.0833 0.9167 (  2608 PWs)   bands (ev):

    -2.1400  -0.9430   2.4039   3.2176

          k = 0.5833 0.0833 0.7500 (  2608 PWs)   bands (ev):

    -2.5100  -0.6178   1.9048   3.7798

          k = 0.4167 0.2500 0.5833 (  2622 PWs)   bands (ev):

    -3.5664  -0.1968   3.6416   4.6730

          k =-0.0833-0.9167 0.0833 (  2604 PWs)   bands (ev):

    -2.2385  -0.9535   3.0091   3.4290

          k =-0.2500-0.7500-0.0833 (  2615 PWs)   bands (ev):

    -3.1914   0.1893   2.7413   3.5674

          k =-0.0833-0.5833 0.0833 (  2620 PWs)   bands (ev):

    -4.3033   1.8031   3.8479   4.0788

          k =-0.2500 0.2500 0.2500 (  2632 PWs)   bands (ev):

    -5.0343   2.2730   5.4857   5.4857

          k =-0.4167 0.4167 0.0833 (  2620 PWs)   bands (ev):

    -4.3392   1.3430   3.2813   5.3165

          k = 0.4167-0.4167 0.9167 (  2613 PWs)   bands (ev):

    -3.1274  -0.1140   2.1361   4.5076

          k = 0.2500-0.2500 0.7500 (  2618 PWs)   bands (ev):

    -3.0762  -0.1941   2.6355   4.0115

          k =-0.2500 0.5833 0.2500 (  2613 PWs)   bands (ev):

    -3.9042   0.5132   3.7736   4.3933

          k = 0.5833-0.2500 1.0833 (  2619 PWs)   bands (ev):

    -2.8765  -0.2149   2.2381   3.5571

          k = 0.4167-0.0833 0.9167 (  2613 PWs)   bands (ev):

    -2.0245  -0.9506   2.0592   2.8637

          k =-0.2500-1.0833 0.2500 (  2605 PWs)   bands (ev):

    -2.2385  -0.8649   1.9289   3.8127

          k =-0.4167 0.4167 0.4167 (  2602 PWs)   bands (ev):

    -3.8074  -0.3119   5.0941   5.0941

          k = 0.4167-0.4167 1.2500 (  2605 PWs)   bands (ev):

    -3.1840  -0.6106   3.2018   4.6388

     highest occupied level (ev):     6.1106

!    total energy              =     -17.05090107 Ry
     estimated scf accuracy    <          1.0E-13 Ry

     The total energy is the sum of the following terms:
     one-electron contribution =       5.01080643 Ry
     hartree contribution      =       1.07710394 Ry
     xc contribution           =      -6.22231016 Ry
     ewald contribution        =     -16.91650128 Ry

     convergence has been achieved in   8 iterations

     Forces acting on atoms (cartesian axes, Ry/au):

     atom    1 type  1   force =    -0.00000000    0.00000000   -0.00000000
     atom    2 type  1   force =     0.00000000   -0.00000000    0.00000000

     Total force =     0.000000     Total SCF correction =     0.000000

     Writing all to output data dir /fastscratch/tsievers/QE_TMP_DIR/silicon_ph_bench_nd_4_n_procs_28_1.save/
 
     init_run     :      0.09s CPU      0.14s WALL (       1 calls)
     electrons    :      1.92s CPU      3.28s WALL (       1 calls)
     forces       :      0.01s CPU      0.01s WALL (       1 calls)

     Called by init_run:
     wfcinit      :      0.08s CPU      0.09s WALL (       1 calls)
     potinit      :      0.00s CPU      0.00s WALL (       1 calls)
     hinit0       :      0.01s CPU      0.04s WALL (       1 calls)

     Called by electrons:
     c_bands      :      1.75s CPU      1.79s WALL (       9 calls)
     sum_band     :      0.15s CPU      0.15s WALL (       9 calls)
     v_of_rho     :      0.00s CPU      0.00s WALL (       9 calls)
     mix_rho      :      0.00s CPU      0.00s WALL (       9 calls)

     Called by c_bands:
     init_us_2    :      0.02s CPU      0.02s WALL (     560 calls)
     init_us_2:cp :      0.02s CPU      0.02s WALL (     560 calls)
     cegterg      :      1.66s CPU      1.70s WALL (     252 calls)

     Called by *egterg:
     cdiaghg      :      0.48s CPU      0.50s WALL (    1033 calls)
     h_psi        :      0.98s CPU      1.00s WALL (    1089 calls)
     g_psi        :      0.00s CPU      0.00s WALL (     809 calls)

     Called by h_psi:
     h_psi:calbec :      0.05s CPU      0.05s WALL (    1089 calls)
     vloc_psi     :      0.90s CPU      0.92s WALL (    1089 calls)
     add_vuspsi   :      0.02s CPU      0.02s WALL (    1089 calls)

     General routines
     calbec       :      0.05s CPU      0.05s WALL (    1201 calls)
     fft          :      0.01s CPU      0.04s WALL (      31 calls)
     ffts         :      0.00s CPU      0.00s WALL (       9 calls)
     fftw         :      1.00s CPU      1.02s WALL (    8174 calls)
 
     Parallel routines
 
     PWSCF        :      2.12s CPU      4.74s WALL

 
   This run was terminated on:  18:35:15  27Jun2022            

=------------------------------------------------------------------------------=
   JOB DONE.
=------------------------------------------------------------------------------=

     Program PHONON v.7.0 starts on 27Jun2022 at 18:35:19 

     This program is part of the open-source Quantum ESPRESSO suite
     for quantum simulation of materials; please cite
         "P. Giannozzi et al., J. Phys.:Condens. Matter 21 395502 (2009);
         "P. Giannozzi et al., J. Phys.:Condens. Matter 29 465901 (2017);
         "P. Giannozzi et al., J. Chem. Phys. 152 154105 (2020);
          URL http://www.quantum-espresso.org", 
     in publications or presentations arising from this work. More details at
     http://www.quantum-espresso.org/quote

     Parallel version (MPI), running on    28 processors

     MPI processes distributed on     2 nodes
     R & G space division:  proc/nbgrp/npool/nimage =      28
     58473 MiB available memory on the printing compute node when the environment starts
 
     Reading input from in_files/silicon_ph_bench_nd_4_n_procs_28_1.ph
      Title line not specified: using 'default'.

     Reading xml data from directory:

     /fastscratch/tsievers/QE_TMP_DIR/silicon_ph_bench_nd_4_n_procs_28_1.save/

     IMPORTANT: XC functional enforced from input :
     Exchange-correlation= PW
                           (   1   4   0   0   0   0   0)
     Any further DFT definition will be discarded
     Please, verify this is what you really want

 
     Parallelization info
     --------------------
     sticks:   dense  smooth     PW     G-vecs:    dense   smooth      PW
     Min          35      35     10                  744      744     122
     Max          36      36     11                  747      747     126
     Sum        1003    1003    301                20875    20875    3479
 
     Using Slab Decomposition
 
     Reading collected, re-writing distributed wavefunctions


     Dynamical matrices for ( 6, 6, 6)  uniform grid of q-points
     (  16 q-points):
       N         xq(1)         xq(2)         xq(3) 
       1   0.000000000   0.000000000   0.000000000
       2  -0.166666667   0.166666667  -0.166666667
       3  -0.333333333   0.333333333  -0.333333333
       4   0.500000000  -0.500000000   0.500000000
       5   0.000000000   0.333333333   0.000000000
       6  -0.166666667   0.500000000  -0.166666667
       7   0.666666667  -0.333333333   0.666666667
       8   0.500000000  -0.166666667   0.500000000
       9   0.333333333   0.000000000   0.333333333
      10   0.000000000   0.666666667   0.000000000
      11   0.833333333  -0.166666667   0.833333333
      12   0.666666667  -0.000000000   0.666666667
      13   0.000000000  -1.000000000   0.000000000
      14   0.666666667  -0.333333333   1.000000000
      15   0.500000000  -0.166666667   0.833333333
      16  -0.333333333  -1.000000000   0.000000000

     Calculation of q =    0.0000000   0.0000000   0.0000000

     default                                                                    

     bravais-lattice index     =            2
     lattice parameter (alat)  =      10.1899  a.u.
     unit-cell volume          =     264.5151 (a.u.)^3
     number of atoms/cell      =            2
     number of atomic types    =            1
     kinetic-energy cut-off    =      70.0000  Ry
     charge density cut-off    =     280.0000  Ry
     convergence threshold     =      1.0E-15
     beta                      =       0.7000
     number of iterations used =            4
     Exchange-correlation= PW
                           (   1   4   0   0   0   0   0)


     celldm(1)=   10.18990  celldm(2)=    0.00000  celldm(3)=    0.00000
     celldm(4)=    0.00000  celldm(5)=    0.00000  celldm(6)=    0.00000

     crystal axes: (cart. coord. in units of alat)
               a(1) = ( -0.5000  0.0000  0.5000 )  
               a(2) = (  0.0000  0.5000  0.5000 )  
               a(3) = ( -0.5000  0.5000  0.0000 )  

     reciprocal axes: (cart. coord. in units 2 pi/alat)
               b(1) = ( -1.0000 -1.0000  1.0000 )  
               b(2) = (  1.0000  1.0000  1.0000 )  
               b(3) = ( -1.0000  1.0000 -1.0000 )  


     Atoms inside the unit cell: 

     Cartesian axes

     site n.  atom      mass           positions (alat units)
        1     Si  28.0855   tau(    1) = (    0.00000    0.00000    0.00000  )
        2     Si  28.0855   tau(    2) = (   -0.25000    0.25000    0.25000  )

     Computing dynamical matrix for 
                    q = (   0.0000000   0.0000000   0.0000000 )
 
     49 Sym.Ops. (with q -> -q+G )


     G cutoff =  736.4420  (    747 G-vectors)     FFT grid: ( 40, 40, 40)
     number of k points=    28

     PseudoPot. # 1 for Si read from file:
     ./pseudos/Si.nc.UPF
     MD5 check sum: 9e2d726316af3d4752eea8ab0afbb951
     Pseudo is Norm-conserving + core correction, Zval =  4.0
     Generated using ONCVPSP code by D. R. Hamann
     Using radial grid of 1510 points,  6 beta functions with: 
                l(1) =   0
                l(2) =   0
                l(3) =   1
                l(4) =   1
                l(5) =   2
                l(6) =   2

     Mode symmetry, O_h (m-3m)  point group:


     Electric field:
     Dielectric constant
     Born effective charges in two ways 


     Atomic displacements:
     There are    2 irreducible representations

     Representation     1      3 modes -  To be done

     Representation     2      3 modes -  To be done



     Alpha used in Ewald sum =   2.8000
     PHONON       :      0.68s CPU      1.05s WALL


     Electric Fields Calculation

      iter #   1 total cpu time :     4.4 secs   av.it.:   6.5
      thresh= 1.000E-02 alpha_mix =  0.700 |ddv_scf|^2 =  5.870E-08

      iter #   2 total cpu time :     6.3 secs   av.it.:  12.0
      thresh= 2.423E-05 alpha_mix =  0.700 |ddv_scf|^2 =  2.516E-09

      iter #   3 total cpu time :     8.0 secs   av.it.:  11.9
      thresh= 5.016E-06 alpha_mix =  0.700 |ddv_scf|^2 =  2.836E-11

      iter #   4 total cpu time :     9.8 secs   av.it.:  12.2
      thresh= 5.325E-07 alpha_mix =  0.700 |ddv_scf|^2 =  1.682E-13

      iter #   5 total cpu time :    13.9 secs   av.it.:  11.2
      thresh= 4.101E-08 alpha_mix =  0.700 |ddv_scf|^2 =  6.178E-17

     End of electric fields calculation

          Dielectric constant in cartesian axis 

          (      13.311779148       0.000000000      -0.000000000 )
          (       0.000000000      13.311779148      -0.000000000 )
          (      -0.000000000      -0.000000000      13.311779148 )

          Effective charges (d Force / dE) in cartesian axis without acoustic sum rule applied (asr)

           atom      1   Si Mean Z*:       -0.00672
      Ex  (       -0.00672       -0.00000        0.00000 )
      Ey  (        0.00000       -0.00672        0.00000 )
      Ez  (        0.00000       -0.00000       -0.00672 )
           atom      2   Si Mean Z*:       -0.00672
      Ex  (       -0.00672        0.00000        0.00000 )
      Ey  (        0.00000       -0.00672        0.00000 )
      Ez  (        0.00000        0.00000       -0.00672 )

          Effective charges Sum: Mean:       -0.01343
             -0.01343        0.00000        0.00000
              0.00000       -0.01343        0.00000
              0.00000        0.00000       -0.01343

          Effective charges (d Force / dE) in cartesian axis with asr applied: 
           atom      1   Si Mean Z*:        0.00000
      E*x (        0.00000       -0.00000        0.00000 )
      E*y (       -0.00000        0.00000        0.00000 )
      E*z (        0.00000       -0.00000        0.00000 )
           atom      2   Si Mean Z*:       -0.00000
      E*x (       -0.00000        0.00000       -0.00000 )
      E*y (        0.00000        0.00000        0.00000 )
      E*z (       -0.00000        0.00000       -0.00000 )


     Representation #   1 modes #   1   2   3

     Self-consistent Calculation

      iter #   1 total cpu time :    17.1 secs   av.it.:   5.8
      thresh= 1.000E-02 alpha_mix =  0.700 |ddv_scf|^2 =  8.462E-09

      iter #   2 total cpu time :    20.6 secs   av.it.:  12.0
      thresh= 9.199E-06 alpha_mix =  0.700 |ddv_scf|^2 =  1.902E-10

      iter #   3 total cpu time :    23.2 secs   av.it.:  12.0
      thresh= 1.379E-06 alpha_mix =  0.700 |ddv_scf|^2 =  7.098E-12

      iter #   4 total cpu time :    25.1 secs   av.it.:  11.8
      thresh= 2.664E-07 alpha_mix =  0.700 |ddv_scf|^2 =  2.299E-14

      iter #   5 total cpu time :    26.9 secs   av.it.:  12.1
      thresh= 1.516E-08 alpha_mix =  0.700 |ddv_scf|^2 =  1.068E-16

     End of self-consistent calculation

     Convergence has been achieved 


     Representation #   2 modes #   4   5   6

     Self-consistent Calculation

      iter #   1 total cpu time :    28.1 secs   av.it.:   6.0
      thresh= 1.000E-02 alpha_mix =  0.700 |ddv_scf|^2 =  6.108E-09

      iter #   2 total cpu time :    30.0 secs   av.it.:  12.2
      thresh= 7.815E-06 alpha_mix =  0.700 |ddv_scf|^2 =  2.197E-10

      iter #   3 total cpu time :    31.8 secs   av.it.:  12.1
      thresh= 1.482E-06 alpha_mix =  0.700 |ddv_scf|^2 =  9.998E-12

      iter #   4 total cpu time :    33.8 secs   av.it.:  12.1
      thresh= 3.162E-07 alpha_mix =  0.700 |ddv_scf|^2 =  1.790E-14

      iter #   5 total cpu time :    35.8 secs   av.it.:  12.2
      thresh= 1.338E-08 alpha_mix =  0.700 |ddv_scf|^2 =  4.806E-17

     End of self-consistent calculation

     Convergence has been achieved 
 
     Number of q in the star =    1
     List of q in the star:
          1   0.000000000   0.000000000   0.000000000

          Dielectric constant in cartesian axis 

          (      13.311779148       0.000000000      -0.000000000 )
          (       0.000000000      13.311779148      -0.000000000 )
          (      -0.000000000      -0.000000000      13.311779148 )

          Effective charges (d Force / dE) in cartesian axis without acoustic sum rule applied (asr)

           atom      1   Si Mean Z*:       -0.00672
      Ex  (       -0.00672       -0.00000        0.00000 )
      Ey  (        0.00000       -0.00672        0.00000 )
      Ez  (        0.00000       -0.00000       -0.00672 )
           atom      2   Si Mean Z*:       -0.00672
      Ex  (       -0.00672        0.00000        0.00000 )
      Ey  (        0.00000       -0.00672        0.00000 )
      Ez  (        0.00000        0.00000       -0.00672 )

          Effective charges Sum: Mean:       -0.01343
             -0.01343        0.00000        0.00000
              0.00000       -0.01343        0.00000
              0.00000        0.00000       -0.01343

          Effective charges (d Force / dE) in cartesian axis with asr applied: 
           atom      1   Si Mean Z*:        0.00000
      E*x (        0.00000       -0.00000        0.00000 )
      E*y (       -0.00000        0.00000        0.00000 )
      E*z (        0.00000       -0.00000        0.00000 )
           atom      2   Si Mean Z*:       -0.00000
      E*x (       -0.00000        0.00000       -0.00000 )
      E*y (        0.00000        0.00000        0.00000 )
      E*z (       -0.00000        0.00000       -0.00000 )

          Effective charges (d P / du) in cartesian axis 

           atom      1   Si 
      Px  (       -0.00679       -0.00000       -0.00000 )
      Py  (        0.00000       -0.00679        0.00000 )
      Pz  (        0.00000        0.00000       -0.00679 )
           atom      2   Si 
      Px  (       -0.00679       -0.00000       -0.00000 )
      Py  (       -0.00000       -0.00679        0.00000 )
      Pz  (       -0.00000        0.00000       -0.00679 )

     Diagonalizing the dynamical matrix

     q = (    0.000000000   0.000000000   0.000000000 ) 

 **************************************************************************
     freq (    1) =      -0.111564 [THz] =      -3.721365 [cm-1]
     freq (    2) =      -0.111564 [THz] =      -3.721365 [cm-1]
     freq (    3) =      -0.111564 [THz] =      -3.721365 [cm-1]
     freq (    4) =      15.412098 [THz] =     514.092248 [cm-1]
     freq (    5) =      15.412098 [THz] =     514.092248 [cm-1]
     freq (    6) =      15.412098 [THz] =     514.092248 [cm-1]
 **************************************************************************

     Mode symmetry, O_h (m-3m)  point group:

     freq (   1-   3) =         -3.7  [cm-1]   --> T_1u G_15  G_4- I  
     freq (   4-   6) =        514.1  [cm-1]   --> T_2g G_25' G_5+ R  

     Calculation of q =   -0.1666667   0.1666667  -0.1666667

     Subspace diagonalization in iterative solution of the eigenvalue problem:
     one sub-group per band group will be used
     scalapack distributed-memory algorithm (size of sub-group:  2*  2 procs)

 
     Parallelization info
     --------------------
     sticks:   dense  smooth     PW     G-vecs:    dense   smooth      PW
     Min          35      35     11                  744      744     130
     Max          36      36     12                  747      747     133
     Sum        1003    1003    313                20875    20875    3695
 
     Using Slab Decomposition
 

     Title: 
     default                                                                    


     bravais-lattice index     =            2
     lattice parameter (alat)  =      10.1899  a.u.
     unit-cell volume          =     264.5151 (a.u.)^3
     number of atoms/cell      =            2
     number of atomic types    =            1
     number of electrons       =         8.00
     number of Kohn-Sham states=            4
     kinetic-energy cutoff     =      70.0000  Ry
     charge density cutoff     =     280.0000  Ry
     Exchange-correlation= PW
                           (   1   4   0   0   0   0   0)

     celldm(1)=  10.189905  celldm(2)=   0.000000  celldm(3)=   0.000000
     celldm(4)=   0.000000  celldm(5)=   0.000000  celldm(6)=   0.000000

     crystal axes: (cart. coord. in units of alat)
               a(1) = (  -0.500000   0.000000   0.500000 )  
               a(2) = (   0.000000   0.500000   0.500000 )  
               a(3) = (  -0.500000   0.500000   0.000000 )  

     reciprocal axes: (cart. coord. in units 2 pi/alat)
               b(1) = ( -1.000000 -1.000000  1.000000 )  
               b(2) = (  1.000000  1.000000  1.000000 )  
               b(3) = ( -1.000000  1.000000 -1.000000 )  


     PseudoPot. # 1 for Si read from file:
     ./pseudos/Si.nc.UPF
     MD5 check sum: 9e2d726316af3d4752eea8ab0afbb951
     Pseudo is Norm-conserving + core correction, Zval =  4.0
     Generated using ONCVPSP code by D. R. Hamann
     Using radial grid of 1510 points,  6 beta functions with: 
                l(1) =   0
                l(2) =   0
                l(3) =   1
                l(4) =   1
                l(5) =   2
                l(6) =   2

     atomic species   valence    mass     pseudopotential
        Si             4.00    28.08550     Si( 1.00)

     48 Sym. Ops., with inversion, found



   Cartesian axes

     site n.     atom                  positions (alat units)
         1           Si  tau(   1) = (   0.0000000   0.0000000   0.0000000  )
         2           Si  tau(   2) = (  -0.2500000   0.2500000   0.2500000  )

     number of k points=   364

     Number of k-points >= 100: set verbosity='high' to print them.

     Dense  grid:    20875 G-vectors     FFT dimensions: (  40,  40,  40)

     Estimated max dynamical RAM per process >       1.78 MB

     Estimated total dynamical RAM >      49.81 MB

     The potential is recalculated from file :
     /fastscratch/tsievers/QE_TMP_DIR/_ph0/silicon_ph_bench_nd_4_n_procs_28_1.save/charge-density

     Starting wfcs are    8 atomic wfcs

     Band Structure Calculation
     Davidson diagonalization with overlap

     ethr =  1.25E-10,  avg # of iterations = 12.9

     total cpu time spent up to now is       10.7 secs

     End of band structure calculation

     Number of k-points >= 100: set verbosity='high' to print the bands.

     highest occupied level (ev):     6.1106

     Writing config to output data dir /fastscratch/tsievers/QE_TMP_DIR/_ph0/silicon_ph_bench_nd_4_n_procs_28_1.save/

     default                                                                    

     bravais-lattice index     =            2
     lattice parameter (alat)  =      10.1899  a.u.
     unit-cell volume          =     264.5151 (a.u.)^3
     number of atoms/cell      =            2
     number of atomic types    =            1
     kinetic-energy cut-off    =      70.0000  Ry
     charge density cut-off    =     280.0000  Ry
     convergence threshold     =      1.0E-15
     beta                      =       0.7000
     number of iterations used =            4
     Exchange-correlation= PW
                           (   1   4   0   0   0   0   0)


     celldm(1)=   10.18990  celldm(2)=    0.00000  celldm(3)=    0.00000
     celldm(4)=    0.00000  celldm(5)=    0.00000  celldm(6)=    0.00000

     crystal axes: (cart. coord. in units of alat)
               a(1) = ( -0.5000  0.0000  0.5000 )  
               a(2) = (  0.0000  0.5000  0.5000 )  
               a(3) = ( -0.5000  0.5000  0.0000 )  

     reciprocal axes: (cart. coord. in units 2 pi/alat)
               b(1) = ( -1.0000 -1.0000  1.0000 )  
               b(2) = (  1.0000  1.0000  1.0000 )  
               b(3) = ( -1.0000  1.0000 -1.0000 )  


     Atoms inside the unit cell: 

     Cartesian axes

     site n.  atom      mass           positions (alat units)
        1     Si  28.0855   tau(    1) = (    0.00000    0.00000    0.00000  )
        2     Si  28.0855   tau(    2) = (   -0.25000    0.25000    0.25000  )

     Computing dynamical matrix for 
                    q = (  -0.1666667   0.1666667  -0.1666667 )
 
      6 Sym.Ops. (no q -> -q+G )


     G cutoff =  736.4420  (    747 G-vectors)     FFT grid: ( 40, 40, 40)
     number of k points=   364

     PseudoPot. # 1 for Si read from file:
     ./pseudos/Si.nc.UPF
     MD5 check sum: 9e2d726316af3d4752eea8ab0afbb951
     Pseudo is Norm-conserving + core correction, Zval =  4.0
     Generated using ONCVPSP code by D. R. Hamann
     Using radial grid of 1510 points,  6 beta functions with: 
                l(1) =   0
                l(2) =   0
                l(3) =   1
                l(4) =   1
                l(5) =   2
                l(6) =   2

     Mode symmetry, C_3v (3m)   point group:


     Atomic displacements:
     There are    4 irreducible representations

     Representation     1      1 modes -  To be done

     Representation     2      1 modes -  To be done

     Representation     3      2 modes -  To be done

     Representation     4      2 modes -  To be done



     Alpha used in Ewald sum =   2.8000
     PHONON       :     37.45s CPU     52.31s WALL



     Representation #   1 mode #   1

     Self-consistent Calculation

      iter #   1 total cpu time :    54.4 secs   av.it.:   6.6
      thresh= 1.000E-02 alpha_mix =  0.700 |ddv_scf|^2 =  7.918E-04

      iter #   2 total cpu time :    57.1 secs   av.it.:   9.2
      thresh= 2.814E-03 alpha_mix =  0.700 |ddv_scf|^2 =  2.594E-02

      iter #   3 total cpu time :    59.4 secs   av.it.:   7.6
      thresh= 1.000E-02 alpha_mix =  0.700 |ddv_scf|^2 =  2.106E-07

      iter #   4 total cpu time :    62.1 secs   av.it.:   9.4
      thresh= 4.589E-05 alpha_mix =  0.700 |ddv_scf|^2 =  6.874E-09

      iter #   5 total cpu time :    64.9 secs   av.it.:   9.8
      thresh= 8.291E-06 alpha_mix =  0.700 |ddv_scf|^2 =  2.275E-10

      iter #   6 total cpu time :    67.8 secs   av.it.:   9.3
      thresh= 1.508E-06 alpha_mix =  0.700 |ddv_scf|^2 =  5.778E-10

      iter #   7 total cpu time :    70.2 secs   av.it.:   7.9
      thresh= 2.404E-06 alpha_mix =  0.700 |ddv_scf|^2 =  5.357E-11

      iter #   8 total cpu time :    73.6 secs   av.it.:   8.7
      thresh= 7.319E-07 alpha_mix =  0.700 |ddv_scf|^2 =  3.853E-13

      iter #   9 total cpu time :    76.4 secs   av.it.:   8.5
      thresh= 6.207E-08 alpha_mix =  0.700 |ddv_scf|^2 =  8.308E-15

      iter #  10 total cpu time :    79.8 secs   av.it.:   8.9
      thresh= 9.115E-09 alpha_mix =  0.700 |ddv_scf|^2 =  9.445E-16

     End of self-consistent calculation

     Convergence has been achieved 


     Representation #   2 mode #   2

     Self-consistent Calculation

      iter #   1 total cpu time :    84.8 secs   av.it.:   6.6
      thresh= 1.000E-02 alpha_mix =  0.700 |ddv_scf|^2 =  7.918E-04

      iter #   2 total cpu time :    88.6 secs   av.it.:   9.2
      thresh= 2.814E-03 alpha_mix =  0.700 |ddv_scf|^2 =  2.594E-02

      iter #   3 total cpu time :    91.0 secs   av.it.:   7.6
      thresh= 1.000E-02 alpha_mix =  0.700 |ddv_scf|^2 =  2.106E-07

      iter #   4 total cpu time :    93.7 secs   av.it.:   9.4
      thresh= 4.589E-05 alpha_mix =  0.700 |ddv_scf|^2 =  6.874E-09

      iter #   5 total cpu time :    96.5 secs   av.it.:   9.8
      thresh= 8.291E-06 alpha_mix =  0.700 |ddv_scf|^2 =  2.275E-10

      iter #   6 total cpu time :    99.1 secs   av.it.:   9.3
      thresh= 1.508E-06 alpha_mix =  0.700 |ddv_scf|^2 =  5.778E-10

      iter #   7 total cpu time :   101.5 secs   av.it.:   7.9
      thresh= 2.404E-06 alpha_mix =  0.700 |ddv_scf|^2 =  5.357E-11

      iter #   8 total cpu time :   104.1 secs   av.it.:   8.7
      thresh= 7.319E-07 alpha_mix =  0.700 |ddv_scf|^2 =  3.852E-13

      iter #   9 total cpu time :   106.9 secs   av.it.:   8.5
      thresh= 6.207E-08 alpha_mix =  0.700 |ddv_scf|^2 =  8.308E-15

      iter #  10 total cpu time :   109.7 secs   av.it.:   8.9
      thresh= 9.115E-09 alpha_mix =  0.700 |ddv_scf|^2 =  9.444E-16

     End of self-consistent calculation

     Convergence has been achieved 


     Representation #   3 modes #   3   4

     Self-consistent Calculation

      iter #   1 total cpu time :   115.8 secs   av.it.:   6.1
      thresh= 1.000E-02 alpha_mix =  0.700 |ddv_scf|^2 =  2.065E-08

      iter #   2 total cpu time :   123.3 secs   av.it.:  11.7
      thresh= 1.437E-05 alpha_mix =  0.700 |ddv_scf|^2 =  9.190E-10

      iter #   3 total cpu time :   129.6 secs   av.it.:  11.6
      thresh= 3.032E-06 alpha_mix =  0.700 |ddv_scf|^2 =  2.400E-11

      iter #   4 total cpu time :   136.0 secs   av.it.:  11.7
      thresh= 4.899E-07 alpha_mix =  0.700 |ddv_scf|^2 =  2.769E-13

      iter #   5 total cpu time :   143.4 secs   av.it.:  11.7
      thresh= 5.262E-08 alpha_mix =  0.700 |ddv_scf|^2 =  5.876E-15

      iter #   6 total cpu time :   152.9 secs   av.it.:  12.0
      thresh= 7.665E-09 alpha_mix =  0.700 |ddv_scf|^2 =  2.668E-17

     End of self-consistent calculation

     Convergence has been achieved 


     Representation #   4 modes #   5   6

     Self-consistent Calculation

      iter #   1 total cpu time :   156.9 secs   av.it.:   6.0
      thresh= 1.000E-02 alpha_mix =  0.700 |ddv_scf|^2 =  2.065E-08

      iter #   2 total cpu time :   163.3 secs   av.it.:  11.7
      thresh= 1.437E-05 alpha_mix =  0.700 |ddv_scf|^2 =  9.192E-10

      iter #   3 total cpu time :   172.9 secs   av.it.:  11.5
      thresh= 3.032E-06 alpha_mix =  0.700 |ddv_scf|^2 =  2.400E-11

      iter #   4 total cpu time :   182.3 secs   av.it.:  11.7
      thresh= 4.899E-07 alpha_mix =  0.700 |ddv_scf|^2 =  2.770E-13

      iter #   5 total cpu time :   190.0 secs   av.it.:  11.6
      thresh= 5.263E-08 alpha_mix =  0.700 |ddv_scf|^2 =  5.884E-15

      iter #   6 total cpu time :   196.4 secs   av.it.:  12.0
      thresh= 7.671E-09 alpha_mix =  0.700 |ddv_scf|^2 =  2.668E-17

     End of self-consistent calculation

     Convergence has been achieved 
 
     Number of q in the star =    8
     List of q in the star:
          1  -0.166666667   0.166666667  -0.166666667
          2   0.166666667   0.166666667   0.166666667
          3  -0.166666667  -0.166666667  -0.166666667
          4   0.166666667  -0.166666667   0.166666667
          5   0.166666667  -0.166666667  -0.166666667
          6   0.166666667   0.166666667  -0.166666667
          7  -0.166666667  -0.166666667   0.166666667
          8  -0.166666667   0.166666667   0.166666667

     Diagonalizing the dynamical matrix

     q = (   -0.166666667   0.166666667  -0.166666667 ) 

 **************************************************************************
     freq (    1) =       2.202748 [THz] =      73.475776 [cm-1]
     freq (    2) =       2.202748 [THz] =      73.475776 [cm-1]
     freq (    3) =       4.748488 [THz] =     158.392496 [cm-1]
     freq (    4) =      15.023983 [THz] =     501.146146 [cm-1]
     freq (    5) =      15.065887 [THz] =     502.543905 [cm-1]
     freq (    6) =      15.065887 [THz] =     502.543905 [cm-1]
 **************************************************************************

     Mode symmetry, C_3v (3m)   point group:

     freq (   1-   2) =         73.5  [cm-1]   --> E    L_3           
     freq (   3-   3) =        158.4  [cm-1]   --> A_1  L_1           
     freq (   4-   4) =        501.1  [cm-1]   --> A_1  L_1           
     freq (   5-   6) =        502.5  [cm-1]   --> E    L_3           

     Calculation of q =   -0.3333333   0.3333333  -0.3333333
 
     Parallelization info
     --------------------
     sticks:   dense  smooth     PW     G-vecs:    dense   smooth      PW
     Min          35      35     11                  744      744     136
     Max          36      36     12                  747      747     141
     Sum        1003    1003    313                20875    20875    3839
 
     Using Slab Decomposition
 

     Title: 
     default                                                                    


     bravais-lattice index     =            2
     lattice parameter (alat)  =      10.1899  a.u.
     unit-cell volume          =     264.5151 (a.u.)^3
     number of atoms/cell      =            2
     number of atomic types    =            1
     number of electrons       =         8.00
     number of Kohn-Sham states=            4
     kinetic-energy cutoff     =      70.0000  Ry
     charge density cutoff     =     280.0000  Ry
     Exchange-correlation= PW
                           (   1   4   0   0   0   0   0)

     celldm(1)=  10.189905  celldm(2)=   0.000000  celldm(3)=   0.000000
     celldm(4)=   0.000000  celldm(5)=   0.000000  celldm(6)=   0.000000

     crystal axes: (cart. coord. in units of alat)
               a(1) = (  -0.500000   0.000000   0.500000 )  
               a(2) = (   0.000000   0.500000   0.500000 )  
               a(3) = (  -0.500000   0.500000   0.000000 )  

     reciprocal axes: (cart. coord. in units 2 pi/alat)
               b(1) = ( -1.000000 -1.000000  1.000000 )  
               b(2) = (  1.000000  1.000000  1.000000 )  
               b(3) = ( -1.000000  1.000000 -1.000000 )  


     PseudoPot. # 1 for Si read from file:
     ./pseudos/Si.nc.UPF
     MD5 check sum: 9e2d726316af3d4752eea8ab0afbb951
     Pseudo is Norm-conserving + core correction, Zval =  4.0
     Generated using ONCVPSP code by D. R. Hamann
     Using radial grid of 1510 points,  6 beta functions with: 
                l(1) =   0
                l(2) =   0
                l(3) =   1
                l(4) =   1
                l(5) =   2
                l(6) =   2

     atomic species   valence    mass     pseudopotential
        Si             4.00    28.08550     Si( 1.00)

     48 Sym. Ops., with inversion, found



   Cartesian axes

     site n.     atom                  positions (alat units)
         1           Si  tau(   1) = (   0.0000000   0.0000000   0.0000000  )
         2           Si  tau(   2) = (  -0.2500000   0.2500000   0.2500000  )

     number of k points=   364

     Number of k-points >= 100: set verbosity='high' to print them.

     Dense  grid:    20875 G-vectors     FFT dimensions: (  40,  40,  40)

     Estimated max dynamical RAM per process >       1.79 MB

     Estimated total dynamical RAM >      50.19 MB

     The potential is recalculated from file :
     /fastscratch/tsievers/QE_TMP_DIR/_ph0/silicon_ph_bench_nd_4_n_procs_28_1.save/charge-density

     Starting wfcs are    8 atomic wfcs

     Band Structure Calculation
     Davidson diagonalization with overlap

     ethr =  1.25E-10,  avg # of iterations = 12.9

     total cpu time spent up to now is       25.9 secs

     End of band structure calculation

     Number of k-points >= 100: set verbosity='high' to print the bands.

     highest occupied level (ev):     6.1106

     Writing config to output data dir /fastscratch/tsievers/QE_TMP_DIR/_ph0/silicon_ph_bench_nd_4_n_procs_28_1.save/

     default                                                                    

     bravais-lattice index     =            2
     lattice parameter (alat)  =      10.1899  a.u.
     unit-cell volume          =     264.5151 (a.u.)^3
     number of atoms/cell      =            2
     number of atomic types    =            1
     kinetic-energy cut-off    =      70.0000  Ry
     charge density cut-off    =     280.0000  Ry
     convergence threshold     =      1.0E-15
     beta                      =       0.7000
     number of iterations used =            4
     Exchange-correlation= PW
                           (   1   4   0   0   0   0   0)


     celldm(1)=   10.18990  celldm(2)=    0.00000  celldm(3)=    0.00000
     celldm(4)=    0.00000  celldm(5)=    0.00000  celldm(6)=    0.00000

     crystal axes: (cart. coord. in units of alat)
               a(1) = ( -0.5000  0.0000  0.5000 )  
               a(2) = (  0.0000  0.5000  0.5000 )  
               a(3) = ( -0.5000  0.5000  0.0000 )  

     reciprocal axes: (cart. coord. in units 2 pi/alat)
               b(1) = ( -1.0000 -1.0000  1.0000 )  
               b(2) = (  1.0000  1.0000  1.0000 )  
               b(3) = ( -1.0000  1.0000 -1.0000 )  


     Atoms inside the unit cell: 

     Cartesian axes

     site n.  atom      mass           positions (alat units)
        1     Si  28.0855   tau(    1) = (    0.00000    0.00000    0.00000  )
        2     Si  28.0855   tau(    2) = (   -0.25000    0.25000    0.25000  )

     Computing dynamical matrix for 
                    q = (  -0.3333333   0.3333333  -0.3333333 )
 
      6 Sym.Ops. (no q -> -q+G )


     G cutoff =  736.4420  (    747 G-vectors)     FFT grid: ( 40, 40, 40)
     number of k points=   364

     PseudoPot. # 1 for Si read from file:
     ./pseudos/Si.nc.UPF
     MD5 check sum: 9e2d726316af3d4752eea8ab0afbb951
     Pseudo is Norm-conserving + core correction, Zval =  4.0
     Generated using ONCVPSP code by D. R. Hamann
     Using radial grid of 1510 points,  6 beta functions with: 
                l(1) =   0
                l(2) =   0
                l(3) =   1
                l(4) =   1
                l(5) =   2
                l(6) =   2

     Mode symmetry, C_3v (3m)   point group:


     Atomic displacements:
     There are    4 irreducible representations

     Representation     1      1 modes -  To be done

     Representation     2      1 modes -  To be done

     Representation     3      2 modes -  To be done

     Representation     4      2 modes -  To be done



     Alpha used in Ewald sum =   2.8000
     PHONON       :   2m53.50s CPU   3m30.52s WALL



     Representation #   1 mode #   1

     Self-consistent Calculation

      iter #   1 total cpu time :   212.6 secs   av.it.:   6.5
      thresh= 1.000E-02 alpha_mix =  0.700 |ddv_scf|^2 =  5.013E-05

      iter #   2 total cpu time :   215.5 secs   av.it.:  10.0
      thresh= 7.081E-04 alpha_mix =  0.700 |ddv_scf|^2 =  4.001E-04

      iter #   3 total cpu time :   218.0 secs   av.it.:   8.6
      thresh= 2.000E-03 alpha_mix =  0.700 |ddv_scf|^2 =  7.368E-08

      iter #   4 total cpu time :   220.9 secs   av.it.:  10.2
      thresh= 2.714E-05 alpha_mix =  0.700 |ddv_scf|^2 =  1.497E-09

      iter #   5 total cpu time :   223.7 secs   av.it.:  10.2
      thresh= 3.869E-06 alpha_mix =  0.700 |ddv_scf|^2 =  1.574E-11

      iter #   6 total cpu time :   226.7 secs   av.it.:  10.7
      thresh= 3.968E-07 alpha_mix =  0.700 |ddv_scf|^2 =  1.280E-12

      iter #   7 total cpu time :   230.3 secs   av.it.:  10.6
      thresh= 1.131E-07 alpha_mix =  0.700 |ddv_scf|^2 =  7.622E-15

      iter #   8 total cpu time :   233.7 secs   av.it.:  10.5
      thresh= 8.731E-09 alpha_mix =  0.700 |ddv_scf|^2 =  3.490E-15

      iter #   9 total cpu time :   236.7 secs   av.it.:  10.0
      thresh= 5.907E-09 alpha_mix =  0.700 |ddv_scf|^2 =  5.706E-15

      iter #  10 total cpu time :   239.9 secs   av.it.:   9.3
      thresh= 7.554E-09 alpha_mix =  0.700 |ddv_scf|^2 =  2.090E-16

     End of self-consistent calculation

     Convergence has been achieved 


     Representation #   2 mode #   2

     Self-consistent Calculation

      iter #   1 total cpu time :   242.7 secs   av.it.:   6.5
      thresh= 1.000E-02 alpha_mix =  0.700 |ddv_scf|^2 =  5.013E-05

      iter #   2 total cpu time :   245.9 secs   av.it.:  10.0
      thresh= 7.081E-04 alpha_mix =  0.700 |ddv_scf|^2 =  4.001E-04

      iter #   3 total cpu time :   248.5 secs   av.it.:   8.6
      thresh= 2.000E-03 alpha_mix =  0.700 |ddv_scf|^2 =  7.368E-08

      iter #   4 total cpu time :   251.4 secs   av.it.:  10.2
      thresh= 2.714E-05 alpha_mix =  0.700 |ddv_scf|^2 =  1.497E-09

      iter #   5 total cpu time :   254.2 secs   av.it.:  10.2
      thresh= 3.869E-06 alpha_mix =  0.700 |ddv_scf|^2 =  1.574E-11

      iter #   6 total cpu time :   258.2 secs   av.it.:  10.7
      thresh= 3.968E-07 alpha_mix =  0.700 |ddv_scf|^2 =  1.280E-12

      iter #   7 total cpu time :   261.6 secs   av.it.:  10.6
      thresh= 1.131E-07 alpha_mix =  0.700 |ddv_scf|^2 =  7.623E-15

      iter #   8 total cpu time :   265.3 secs   av.it.:  10.5
      thresh= 8.731E-09 alpha_mix =  0.700 |ddv_scf|^2 =  3.497E-15

      iter #   9 total cpu time :   268.5 secs   av.it.:  10.0
      thresh= 5.913E-09 alpha_mix =  0.700 |ddv_scf|^2 =  5.706E-15

      iter #  10 total cpu time :   271.2 secs   av.it.:   9.3
      thresh= 7.554E-09 alpha_mix =  0.700 |ddv_scf|^2 =  2.082E-16

     End of self-consistent calculation

     Convergence has been achieved 


     Representation #   3 modes #   3   4

     Self-consistent Calculation

      iter #   1 total cpu time :   276.2 secs   av.it.:   6.1
      thresh= 1.000E-02 alpha_mix =  0.700 |ddv_scf|^2 =  2.813E-08

      iter #   2 total cpu time :   282.7 secs   av.it.:  11.7
      thresh= 1.677E-05 alpha_mix =  0.700 |ddv_scf|^2 =  1.949E-09

      iter #   3 total cpu time :   289.0 secs   av.it.:  11.5
      thresh= 4.414E-06 alpha_mix =  0.700 |ddv_scf|^2 =  2.821E-11

      iter #   4 total cpu time :   296.8 secs   av.it.:  11.7
      thresh= 5.312E-07 alpha_mix =  0.700 |ddv_scf|^2 =  2.829E-13

      iter #   5 total cpu time :   304.0 secs   av.it.:  11.6
      thresh= 5.319E-08 alpha_mix =  0.700 |ddv_scf|^2 =  5.507E-15

      iter #   6 total cpu time :   310.8 secs   av.it.:  12.0
      thresh= 7.421E-09 alpha_mix =  0.700 |ddv_scf|^2 =  3.755E-17

     End of self-consistent calculation

     Convergence has been achieved 


     Representation #   4 modes #   5   6

     Self-consistent Calculation

      iter #   1 total cpu time :   314.9 secs   av.it.:   6.1
      thresh= 1.000E-02 alpha_mix =  0.700 |ddv_scf|^2 =  2.814E-08

      iter #   2 total cpu time :   321.3 secs   av.it.:  11.6
      thresh= 1.677E-05 alpha_mix =  0.700 |ddv_scf|^2 =  1.951E-09

      iter #   3 total cpu time :   328.0 secs   av.it.:  11.4
      thresh= 4.417E-06 alpha_mix =  0.700 |ddv_scf|^2 =  2.820E-11

      iter #   4 total cpu time :   334.8 secs   av.it.:  11.6
      thresh= 5.310E-07 alpha_mix =  0.700 |ddv_scf|^2 =  2.829E-13

      iter #   5 total cpu time :   341.6 secs   av.it.:  11.6
      thresh= 5.319E-08 alpha_mix =  0.700 |ddv_scf|^2 =  5.502E-15

      iter #   6 total cpu time :   350.1 secs   av.it.:  12.0
      thresh= 7.417E-09 alpha_mix =  0.700 |ddv_scf|^2 =  3.749E-17

     End of self-consistent calculation

     Convergence has been achieved 
 
     Number of q in the star =    8
     List of q in the star:
          1  -0.333333333   0.333333333  -0.333333333
          2   0.333333333   0.333333333   0.333333333
          3  -0.333333333  -0.333333333  -0.333333333
          4   0.333333333  -0.333333333   0.333333333
          5   0.333333333  -0.333333333  -0.333333333
          6   0.333333333   0.333333333  -0.333333333
          7  -0.333333333  -0.333333333   0.333333333
          8  -0.333333333   0.333333333   0.333333333

     Diagonalizing the dynamical matrix

     q = (   -0.333333333   0.333333333  -0.333333333 ) 

 **************************************************************************
     freq (    1) =       3.044102 [THz] =     101.540314 [cm-1]
     freq (    2) =       3.044102 [THz] =     101.540314 [cm-1]
     freq (    3) =       8.747450 [THz] =     291.783511 [cm-1]
     freq (    4) =      13.857050 [THz] =     462.221447 [cm-1]
     freq (    5) =      14.763297 [THz] =     492.450597 [cm-1]
     freq (    6) =      14.763297 [THz] =     492.450597 [cm-1]
 **************************************************************************

     Mode symmetry, C_3v (3m)   point group:

     freq (   1-   2) =        101.5  [cm-1]   --> E    L_3           
     freq (   3-   3) =        291.8  [cm-1]   --> A_1  L_1           
     freq (   4-   4) =        462.2  [cm-1]   --> A_1  L_1           
     freq (   5-   6) =        492.5  [cm-1]   --> E    L_3           

     Calculation of q =    0.5000000  -0.5000000   0.5000000
 
     Parallelization info
     --------------------
     sticks:   dense  smooth     PW     G-vecs:    dense   smooth      PW
     Min          35      35     12                  744      744     143
     Max          36      36     13                  747      747     145
     Sum        1003    1003    337                20875    20875    4015
 
     Using Slab Decomposition
 

     Title: 
     default                                                                    


     bravais-lattice index     =            2
     lattice parameter (alat)  =      10.1899  a.u.
     unit-cell volume          =     264.5151 (a.u.)^3
     number of atoms/cell      =            2
     number of atomic types    =            1
     number of electrons       =         8.00
     number of Kohn-Sham states=            4
     kinetic-energy cutoff     =      70.0000  Ry
     charge density cutoff     =     280.0000  Ry
     Exchange-correlation= PW
                           (   1   4   0   0   0   0   0)

     celldm(1)=  10.189905  celldm(2)=   0.000000  celldm(3)=   0.000000
     celldm(4)=   0.000000  celldm(5)=   0.000000  celldm(6)=   0.000000

     crystal axes: (cart. coord. in units of alat)
               a(1) = (  -0.500000   0.000000   0.500000 )  
               a(2) = (   0.000000   0.500000   0.500000 )  
               a(3) = (  -0.500000   0.500000   0.000000 )  

     reciprocal axes: (cart. coord. in units 2 pi/alat)
               b(1) = ( -1.000000 -1.000000  1.000000 )  
               b(2) = (  1.000000  1.000000  1.000000 )  
               b(3) = ( -1.000000  1.000000 -1.000000 )  


     PseudoPot. # 1 for Si read from file:
     ./pseudos/Si.nc.UPF
     MD5 check sum: 9e2d726316af3d4752eea8ab0afbb951
     Pseudo is Norm-conserving + core correction, Zval =  4.0
     Generated using ONCVPSP code by D. R. Hamann
     Using radial grid of 1510 points,  6 beta functions with: 
                l(1) =   0
                l(2) =   0
                l(3) =   1
                l(4) =   1
                l(5) =   2
                l(6) =   2

     atomic species   valence    mass     pseudopotential
        Si             4.00    28.08550     Si( 1.00)

     48 Sym. Ops., with inversion, found



   Cartesian axes

     site n.     atom                  positions (alat units)
         1           Si  tau(   1) = (   0.0000000   0.0000000   0.0000000  )
         2           Si  tau(   2) = (  -0.2500000   0.2500000   0.2500000  )

     number of k points=   182

     Number of k-points >= 100: set verbosity='high' to print them.

     Dense  grid:    20875 G-vectors     FFT dimensions: (  40,  40,  40)

     Estimated max dynamical RAM per process >       1.81 MB

     Estimated total dynamical RAM >      50.60 MB

     The potential is recalculated from file :
     /fastscratch/tsievers/QE_TMP_DIR/_ph0/silicon_ph_bench_nd_4_n_procs_28_1.save/charge-density

     Starting wfcs are    8 atomic wfcs

     Band Structure Calculation
     Davidson diagonalization with overlap

     ethr =  1.25E-10,  avg # of iterations = 12.9

     total cpu time spent up to now is       31.8 secs

     End of band structure calculation

     Number of k-points >= 100: set verbosity='high' to print the bands.

     highest occupied level (ev):     6.1106

     Writing config to output data dir /fastscratch/tsievers/QE_TMP_DIR/_ph0/silicon_ph_bench_nd_4_n_procs_28_1.save/

     default                                                                    

     bravais-lattice index     =            2
     lattice parameter (alat)  =      10.1899  a.u.
     unit-cell volume          =     264.5151 (a.u.)^3
     number of atoms/cell      =            2
     number of atomic types    =            1
     kinetic-energy cut-off    =      70.0000  Ry
     charge density cut-off    =     280.0000  Ry
     convergence threshold     =      1.0E-15
     beta                      =       0.7000
     number of iterations used =            4
     Exchange-correlation= PW
                           (   1   4   0   0   0   0   0)


     celldm(1)=   10.18990  celldm(2)=    0.00000  celldm(3)=    0.00000
     celldm(4)=    0.00000  celldm(5)=    0.00000  celldm(6)=    0.00000

     crystal axes: (cart. coord. in units of alat)
               a(1) = ( -0.5000  0.0000  0.5000 )  
               a(2) = (  0.0000  0.5000  0.5000 )  
               a(3) = ( -0.5000  0.5000  0.0000 )  

     reciprocal axes: (cart. coord. in units 2 pi/alat)
               b(1) = ( -1.0000 -1.0000  1.0000 )  
               b(2) = (  1.0000  1.0000  1.0000 )  
               b(3) = ( -1.0000  1.0000 -1.0000 )  


     Atoms inside the unit cell: 

     Cartesian axes

     site n.  atom      mass           positions (alat units)
        1     Si  28.0855   tau(    1) = (    0.00000    0.00000    0.00000  )
        2     Si  28.0855   tau(    2) = (   -0.25000    0.25000    0.25000  )

     Computing dynamical matrix for 
                    q = (   0.5000000  -0.5000000   0.5000000 )
 
     13 Sym.Ops. (with q -> -q+G )


     G cutoff =  736.4420  (    747 G-vectors)     FFT grid: ( 40, 40, 40)
     number of k points=   182

     PseudoPot. # 1 for Si read from file:
     ./pseudos/Si.nc.UPF
     MD5 check sum: 9e2d726316af3d4752eea8ab0afbb951
     Pseudo is Norm-conserving + core correction, Zval =  4.0
     Generated using ONCVPSP code by D. R. Hamann
     Using radial grid of 1510 points,  6 beta functions with: 
                l(1) =   0
                l(2) =   0
                l(3) =   1
                l(4) =   1
                l(5) =   2
                l(6) =   2


     Atomic displacements:
     There are    4 irreducible representations

     Representation     1      1 modes -  To be done

     Representation     2      1 modes -  To be done

     Representation     3      2 modes -  To be done

     Representation     4      2 modes -  To be done



     Alpha used in Ewald sum =   2.8000
     PHONON       :   5m 5.45s CPU   5m58.85s WALL



     Representation #   1 mode #   1

     Self-consistent Calculation

      iter #   1 total cpu time :   359.9 secs   av.it.:   5.8
      thresh= 1.000E-02 alpha_mix =  0.700 |ddv_scf|^2 =  1.604E-06

      iter #   2 total cpu time :   361.4 secs   av.it.:  10.2
      thresh= 1.266E-04 alpha_mix =  0.700 |ddv_scf|^2 =  1.480E-06

      iter #   3 total cpu time :   362.9 secs   av.it.:   9.6
      thresh= 1.216E-04 alpha_mix =  0.700 |ddv_scf|^2 =  1.981E-10

      iter #   4 total cpu time :   364.6 secs   av.it.:  10.3
      thresh= 1.408E-06 alpha_mix =  0.700 |ddv_scf|^2 =  3.418E-12

      iter #   5 total cpu time :   366.1 secs   av.it.:  10.2
      thresh= 1.849E-07 alpha_mix =  0.700 |ddv_scf|^2 =  4.870E-14

      iter #   6 total cpu time :   367.6 secs   av.it.:  10.1
      thresh= 2.207E-08 alpha_mix =  0.700 |ddv_scf|^2 =  6.371E-16

     End of self-consistent calculation

     Convergence has been achieved 


     Representation #   2 mode #   2

     Self-consistent Calculation

      iter #   1 total cpu time :   368.7 secs   av.it.:   6.7
      thresh= 1.000E-02 alpha_mix =  0.700 |ddv_scf|^2 =  2.450E-05

      iter #   2 total cpu time :   370.2 secs   av.it.:  10.3
      thresh= 4.950E-04 alpha_mix =  0.700 |ddv_scf|^2 =  8.005E-05

      iter #   3 total cpu time :   371.6 secs   av.it.:   9.3
      thresh= 8.947E-04 alpha_mix =  0.700 |ddv_scf|^2 =  4.731E-09

      iter #   4 total cpu time :   373.1 secs   av.it.:  10.1
      thresh= 6.878E-06 alpha_mix =  0.700 |ddv_scf|^2 =  9.934E-11

      iter #   5 total cpu time :   374.7 secs   av.it.:  10.6
      thresh= 9.967E-07 alpha_mix =  0.700 |ddv_scf|^2 =  4.962E-12

      iter #   6 total cpu time :   376.2 secs   av.it.:  10.3
      thresh= 2.228E-07 alpha_mix =  0.700 |ddv_scf|^2 =  1.400E-13

      iter #   7 total cpu time :   377.6 secs   av.it.:   9.7
      thresh= 3.742E-08 alpha_mix =  0.700 |ddv_scf|^2 =  2.491E-17

     End of self-consistent calculation

     Convergence has been achieved 


     Representation #   3 modes #   3   4

     Self-consistent Calculation

      iter #   1 total cpu time :   381.0 secs   av.it.:   6.1
      thresh= 1.000E-02 alpha_mix =  0.700 |ddv_scf|^2 =  5.662E-08

      iter #   2 total cpu time :   384.5 secs   av.it.:  11.6
      thresh= 2.380E-05 alpha_mix =  0.700 |ddv_scf|^2 =  4.800E-09

      iter #   3 total cpu time :   387.7 secs   av.it.:  11.4
      thresh= 6.928E-06 alpha_mix =  0.700 |ddv_scf|^2 =  3.214E-11

      iter #   4 total cpu time :   391.1 secs   av.it.:  11.4
      thresh= 5.669E-07 alpha_mix =  0.700 |ddv_scf|^2 =  3.594E-14

      iter #   5 total cpu time :   394.7 secs   av.it.:  11.8
      thresh= 1.896E-08 alpha_mix =  0.700 |ddv_scf|^2 =  4.728E-16

     End of self-consistent calculation

     Convergence has been achieved 


     Representation #   4 modes #   5   6

     Self-consistent Calculation

      iter #   1 total cpu time :   396.9 secs   av.it.:   5.6
      thresh= 1.000E-02 alpha_mix =  0.700 |ddv_scf|^2 =  6.426E-09

      iter #   2 total cpu time :   400.2 secs   av.it.:  11.5
      thresh= 8.016E-06 alpha_mix =  0.700 |ddv_scf|^2 =  1.684E-10

      iter #   3 total cpu time :   403.5 secs   av.it.:  11.5
      thresh= 1.298E-06 alpha_mix =  0.700 |ddv_scf|^2 =  1.036E-11

      iter #   4 total cpu time :   406.7 secs   av.it.:  11.5
      thresh= 3.218E-07 alpha_mix =  0.700 |ddv_scf|^2 =  4.431E-14

      iter #   5 total cpu time :   409.9 secs   av.it.:  11.5
      thresh= 2.105E-08 alpha_mix =  0.700 |ddv_scf|^2 =  7.080E-16

     End of self-consistent calculation

     Convergence has been achieved 
 
     Number of q in the star =    4
     List of q in the star:
          1   0.500000000  -0.500000000   0.500000000
          2   0.500000000   0.500000000   0.500000000
          3  -0.500000000   0.500000000   0.500000000
          4   0.500000000   0.500000000  -0.500000000

     Diagonalizing the dynamical matrix

     q = (    0.500000000  -0.500000000   0.500000000 ) 

 **************************************************************************
     freq (    1) =       3.157186 [THz] =     105.312393 [cm-1]
     freq (    2) =       3.157186 [THz] =     105.312393 [cm-1]
     freq (    3) =      11.169087 [THz] =     372.560633 [cm-1]
     freq (    4) =      12.390635 [THz] =     413.307111 [cm-1]
     freq (    5) =      14.704261 [THz] =     490.481338 [cm-1]
     freq (    6) =      14.704261 [THz] =     490.481338 [cm-1]
 **************************************************************************

     Calculation of q =    0.0000000   0.3333333   0.0000000
 
     Parallelization info
     --------------------
     sticks:   dense  smooth     PW     G-vecs:    dense   smooth      PW
     Min          35      35     11                  744      744     131
     Max          36      36     12                  747      747     134
     Sum        1003    1003    313                20875    20875    3719
 
     Using Slab Decomposition
 

     Title: 
     default                                                                    


     bravais-lattice index     =            2
     lattice parameter (alat)  =      10.1899  a.u.
     unit-cell volume          =     264.5151 (a.u.)^3
     number of atoms/cell      =            2
     number of atomic types    =            1
     number of electrons       =         8.00
     number of Kohn-Sham states=            4
     kinetic-energy cutoff     =      70.0000  Ry
     charge density cutoff     =     280.0000  Ry
     Exchange-correlation= PW
                           (   1   4   0   0   0   0   0)

     celldm(1)=  10.189905  celldm(2)=   0.000000  celldm(3)=   0.000000
     celldm(4)=   0.000000  celldm(5)=   0.000000  celldm(6)=   0.000000

     crystal axes: (cart. coord. in units of alat)
               a(1) = (  -0.500000   0.000000   0.500000 )  
               a(2) = (   0.000000   0.500000   0.500000 )  
               a(3) = (  -0.500000   0.500000   0.000000 )  

     reciprocal axes: (cart. coord. in units 2 pi/alat)
               b(1) = ( -1.000000 -1.000000  1.000000 )  
               b(2) = (  1.000000  1.000000  1.000000 )  
               b(3) = ( -1.000000  1.000000 -1.000000 )  


     PseudoPot. # 1 for Si read from file:
     ./pseudos/Si.nc.UPF
     MD5 check sum: 9e2d726316af3d4752eea8ab0afbb951
     Pseudo is Norm-conserving + core correction, Zval =  4.0
     Generated using ONCVPSP code by D. R. Hamann
     Using radial grid of 1510 points,  6 beta functions with: 
                l(1) =   0
                l(2) =   0
                l(3) =   1
                l(4) =   1
                l(5) =   2
                l(6) =   2

     atomic species   valence    mass     pseudopotential
        Si             4.00    28.08550     Si( 1.00)

     48 Sym. Ops., with inversion, found



   Cartesian axes

     site n.     atom                  positions (alat units)
         1           Si  tau(   1) = (   0.0000000   0.0000000   0.0000000  )
         2           Si  tau(   2) = (  -0.2500000   0.2500000   0.2500000  )

     number of k points=   252

     Number of k-points >= 100: set verbosity='high' to print them.

     Dense  grid:    20875 G-vectors     FFT dimensions: (  40,  40,  40)

     Estimated max dynamical RAM per process >       1.78 MB

     Estimated total dynamical RAM >      49.85 MB

     The potential is recalculated from file :
     /fastscratch/tsievers/QE_TMP_DIR/_ph0/silicon_ph_bench_nd_4_n_procs_28_1.save/charge-density

     Starting wfcs are    8 atomic wfcs

     Band Structure Calculation
     Davidson diagonalization with overlap

     ethr =  1.25E-10,  avg # of iterations = 12.8

     total cpu time spent up to now is       41.3 secs

     End of band structure calculation

     Number of k-points >= 100: set verbosity='high' to print the bands.

     highest occupied level (ev):     6.1106

     Writing config to output data dir /fastscratch/tsievers/QE_TMP_DIR/_ph0/silicon_ph_bench_nd_4_n_procs_28_1.save/

     default                                                                    

     bravais-lattice index     =            2
     lattice parameter (alat)  =      10.1899  a.u.
     unit-cell volume          =     264.5151 (a.u.)^3
     number of atoms/cell      =            2
     number of atomic types    =            1
     kinetic-energy cut-off    =      70.0000  Ry
     charge density cut-off    =     280.0000  Ry
     convergence threshold     =      1.0E-15
     beta                      =       0.7000
     number of iterations used =            4
     Exchange-correlation= PW
                           (   1   4   0   0   0   0   0)


     celldm(1)=   10.18990  celldm(2)=    0.00000  celldm(3)=    0.00000
     celldm(4)=    0.00000  celldm(5)=    0.00000  celldm(6)=    0.00000

     crystal axes: (cart. coord. in units of alat)
               a(1) = ( -0.5000  0.0000  0.5000 )  
               a(2) = (  0.0000  0.5000  0.5000 )  
               a(3) = ( -0.5000  0.5000  0.0000 )  

     reciprocal axes: (cart. coord. in units 2 pi/alat)
               b(1) = ( -1.0000 -1.0000  1.0000 )  
               b(2) = (  1.0000  1.0000  1.0000 )  
               b(3) = ( -1.0000  1.0000 -1.0000 )  


     Atoms inside the unit cell: 

     Cartesian axes

     site n.  atom      mass           positions (alat units)
        1     Si  28.0855   tau(    1) = (    0.00000    0.00000    0.00000  )
        2     Si  28.0855   tau(    2) = (   -0.25000    0.25000    0.25000  )

     Computing dynamical matrix for 
                    q = (   0.0000000   0.3333333   0.0000000 )
 
      8 Sym.Ops. (no q -> -q+G )


     G cutoff =  736.4420  (    747 G-vectors)     FFT grid: ( 40, 40, 40)
     number of k points=   252

     PseudoPot. # 1 for Si read from file:
     ./pseudos/Si.nc.UPF
     MD5 check sum: 9e2d726316af3d4752eea8ab0afbb951
     Pseudo is Norm-conserving + core correction, Zval =  4.0
     Generated using ONCVPSP code by D. R. Hamann
     Using radial grid of 1510 points,  6 beta functions with: 
                l(1) =   0
                l(2) =   0
                l(3) =   1
                l(4) =   1
                l(5) =   2
                l(6) =   2

     Mode symmetry, C_4v (4mm)  point group:


     Atomic displacements:
     There are    4 irreducible representations

     Representation     1      1 modes -  To be done

     Representation     2      1 modes -  To be done

     Representation     3      2 modes -  To be done

     Representation     4      2 modes -  To be done



     Alpha used in Ewald sum =   2.8000
     PHONON       :   5m59.44s CPU   7m 1.12s WALL



     Representation #   1 mode #   1

     Self-consistent Calculation

      iter #   1 total cpu time :   422.7 secs   av.it.:   6.8
      thresh= 1.000E-02 alpha_mix =  0.700 |ddv_scf|^2 =  1.063E-03

      iter #   2 total cpu time :   424.6 secs   av.it.:   9.4
      thresh= 3.261E-03 alpha_mix =  0.700 |ddv_scf|^2 =  3.243E-02

      iter #   3 total cpu time :   426.3 secs   av.it.:   8.1
      thresh= 1.000E-02 alpha_mix =  0.700 |ddv_scf|^2 =  2.995E-08

      iter #   4 total cpu time :   428.2 secs   av.it.:   9.2
      thresh= 1.731E-05 alpha_mix =  0.700 |ddv_scf|^2 =  1.402E-09

      iter #   5 total cpu time :   430.0 secs   av.it.:   9.0
      thresh= 3.744E-06 alpha_mix =  0.700 |ddv_scf|^2 =  4.608E-10

      iter #   6 total cpu time :   431.8 secs   av.it.:   8.5
      thresh= 2.147E-06 alpha_mix =  0.700 |ddv_scf|^2 =  5.936E-13

      iter #   7 total cpu time :   433.6 secs   av.it.:   8.8
      thresh= 7.705E-08 alpha_mix =  0.700 |ddv_scf|^2 =  1.481E-14

      iter #   8 total cpu time :   435.3 secs   av.it.:   8.7
      thresh= 1.217E-08 alpha_mix =  0.700 |ddv_scf|^2 =  1.687E-16

     End of self-consistent calculation

     Convergence has been achieved 


     Representation #   2 mode #   2

     Self-consistent Calculation

      iter #   1 total cpu time :   436.8 secs   av.it.:   5.9
      thresh= 1.000E-02 alpha_mix =  0.700 |ddv_scf|^2 =  1.623E-07

      iter #   2 total cpu time :   438.9 secs   av.it.:  10.7
      thresh= 4.029E-05 alpha_mix =  0.700 |ddv_scf|^2 =  2.625E-08

      iter #   3 total cpu time :   441.0 secs   av.it.:  10.5
      thresh= 1.620E-05 alpha_mix =  0.700 |ddv_scf|^2 =  3.320E-10

      iter #   4 total cpu time :   443.0 secs   av.it.:  10.6
      thresh= 1.822E-06 alpha_mix =  0.700 |ddv_scf|^2 =  1.379E-11

      iter #   5 total cpu time :   445.1 secs   av.it.:  10.6
      thresh= 3.714E-07 alpha_mix =  0.700 |ddv_scf|^2 =  3.142E-14

      iter #   6 total cpu time :   447.2 secs   av.it.:  10.7
      thresh= 1.772E-08 alpha_mix =  0.700 |ddv_scf|^2 =  6.279E-16

     End of self-consistent calculation

     Convergence has been achieved 


     Representation #   3 modes #   3   4

     Self-consistent Calculation

      iter #   1 total cpu time :   450.0 secs   av.it.:   6.0
      thresh= 1.000E-02 alpha_mix =  0.700 |ddv_scf|^2 =  2.938E-08

      iter #   2 total cpu time :   455.1 secs   av.it.:  11.7
      thresh= 1.714E-05 alpha_mix =  0.700 |ddv_scf|^2 =  2.678E-09

      iter #   3 total cpu time :   461.3 secs   av.it.:  11.4
      thresh= 5.175E-06 alpha_mix =  0.700 |ddv_scf|^2 =  3.122E-11

      iter #   4 total cpu time :   465.8 secs   av.it.:  11.6
      thresh= 5.587E-07 alpha_mix =  0.700 |ddv_scf|^2 =  3.511E-13

      iter #   5 total cpu time :   470.2 secs   av.it.:  11.5
      thresh= 5.926E-08 alpha_mix =  0.700 |ddv_scf|^2 =  5.830E-15

      iter #   6 total cpu time :   474.7 secs   av.it.:  12.0
      thresh= 7.635E-09 alpha_mix =  0.700 |ddv_scf|^2 =  2.374E-17

     End of self-consistent calculation

     Convergence has been achieved 


     Representation #   4 modes #   5   6

     Self-consistent Calculation

      iter #   1 total cpu time :   477.5 secs   av.it.:   6.0
      thresh= 1.000E-02 alpha_mix =  0.700 |ddv_scf|^2 =  3.874E-08

      iter #   2 total cpu time :   482.0 secs   av.it.:  11.5
      thresh= 1.968E-05 alpha_mix =  0.700 |ddv_scf|^2 =  3.653E-09

      iter #   3 total cpu time :   486.9 secs   av.it.:  11.3
      thresh= 6.044E-06 alpha_mix =  0.700 |ddv_scf|^2 =  3.305E-11

      iter #   4 total cpu time :   491.6 secs   av.it.:  11.5
      thresh= 5.749E-07 alpha_mix =  0.700 |ddv_scf|^2 =  2.246E-13

      iter #   5 total cpu time :   496.0 secs   av.it.:  11.5
      thresh= 4.740E-08 alpha_mix =  0.700 |ddv_scf|^2 =  5.335E-15

      iter #   6 total cpu time :   500.5 secs   av.it.:  11.9
      thresh= 7.304E-09 alpha_mix =  0.700 |ddv_scf|^2 =  2.259E-17

     End of self-consistent calculation

     Convergence has been achieved 
 
     Number of q in the star =    6
     List of q in the star:
          1   0.000000000   0.333333333   0.000000000
          2   0.333333333   0.000000000   0.000000000
          3   0.000000000   0.000000000   0.333333333
          4   0.000000000  -0.333333333   0.000000000
          5  -0.333333333   0.000000000   0.000000000
          6   0.000000000   0.000000000  -0.333333333

     Diagonalizing the dynamical matrix

     q = (    0.000000000   0.333333333   0.000000000 ) 

 **************************************************************************
     freq (    1) =       2.948449 [THz] =      98.349687 [cm-1]
     freq (    2) =       2.948449 [THz] =      98.349687 [cm-1]
     freq (    3) =       4.953339 [THz] =     165.225600 [cm-1]
     freq (    4) =      14.670275 [THz] =     489.347717 [cm-1]
     freq (    5) =      14.670275 [THz] =     489.347717 [cm-1]
     freq (    6) =      15.142888 [THz] =     505.112371 [cm-1]
 **************************************************************************

     Mode symmetry, C_4v (4mm)  point group:

     freq (   1-   2) =         98.3  [cm-1]   --> E    G_5 D_5       
     freq (   3-   3) =        165.2  [cm-1]   --> A_1  G_1 D_1       
     freq (   4-   5) =        489.3  [cm-1]   --> E    G_5 D_5       
     freq (   6-   6) =        505.1  [cm-1]   --> B_2  G_4 D_2'      

     Calculation of q =   -0.1666667   0.5000000  -0.1666667
 
     Parallelization info
     --------------------
     sticks:   dense  smooth     PW     G-vecs:    dense   smooth      PW
     Min          35      35     11                  744      744     136
     Max          36      36     12                  747      747     141
     Sum        1003    1003    313                20875    20875    3839
 
     Using Slab Decomposition
 

     Title: 
     default                                                                    


     bravais-lattice index     =            2
     lattice parameter (alat)  =      10.1899  a.u.
     unit-cell volume          =     264.5151 (a.u.)^3
     number of atoms/cell      =            2
     number of atomic types    =            1
     number of electrons       =         8.00
     number of Kohn-Sham states=            4
     kinetic-energy cutoff     =      70.0000  Ry
     charge density cutoff     =     280.0000  Ry
     Exchange-correlation= PW
                           (   1   4   0   0   0   0   0)

     celldm(1)=  10.189905  celldm(2)=   0.000000  celldm(3)=   0.000000
     celldm(4)=   0.000000  celldm(5)=   0.000000  celldm(6)=   0.000000

     crystal axes: (cart. coord. in units of alat)
               a(1) = (  -0.500000   0.000000   0.500000 )  
               a(2) = (   0.000000   0.500000   0.500000 )  
               a(3) = (  -0.500000   0.500000   0.000000 )  

     reciprocal axes: (cart. coord. in units 2 pi/alat)
               b(1) = ( -1.000000 -1.000000  1.000000 )  
               b(2) = (  1.000000  1.000000  1.000000 )  
               b(3) = ( -1.000000  1.000000 -1.000000 )  


     PseudoPot. # 1 for Si read from file:
     ./pseudos/Si.nc.UPF
     MD5 check sum: 9e2d726316af3d4752eea8ab0afbb951
     Pseudo is Norm-conserving + core correction, Zval =  4.0
     Generated using ONCVPSP code by D. R. Hamann
     Using radial grid of 1510 points,  6 beta functions with: 
                l(1) =   0
                l(2) =   0
                l(3) =   1
                l(4) =   1
                l(5) =   2
                l(6) =   2

     atomic species   valence    mass     pseudopotential
        Si             4.00    28.08550     Si( 1.00)

     48 Sym. Ops., with inversion, found



   Cartesian axes

     site n.     atom                  positions (alat units)
         1           Si  tau(   1) = (   0.0000000   0.0000000   0.0000000  )
         2           Si  tau(   2) = (  -0.2500000   0.2500000   0.2500000  )

     number of k points=   936

     Number of k-points >= 100: set verbosity='high' to print them.

     Dense  grid:    20875 G-vectors     FFT dimensions: (  40,  40,  40)

     Estimated max dynamical RAM per process >       1.79 MB

     Estimated total dynamical RAM >      50.17 MB

     The potential is recalculated from file :
     /fastscratch/tsievers/QE_TMP_DIR/_ph0/silicon_ph_bench_nd_4_n_procs_28_1.save/charge-density

     Starting wfcs are    8 atomic wfcs

     Band Structure Calculation
     Davidson diagonalization with overlap

     ethr =  1.25E-10,  avg # of iterations = 12.8

     total cpu time spent up to now is       70.0 secs

     End of band structure calculation

     Number of k-points >= 100: set verbosity='high' to print the bands.

     highest occupied level (ev):     6.1106

     Writing config to output data dir /fastscratch/tsievers/QE_TMP_DIR/_ph0/silicon_ph_bench_nd_4_n_procs_28_1.save/

     default                                                                    

     bravais-lattice index     =            2
     lattice parameter (alat)  =      10.1899  a.u.
     unit-cell volume          =     264.5151 (a.u.)^3
     number of atoms/cell      =            2
     number of atomic types    =            1
     kinetic-energy cut-off    =      70.0000  Ry
     charge density cut-off    =     280.0000  Ry
     convergence threshold     =      1.0E-15
     beta                      =       0.7000
     number of iterations used =            4
     Exchange-correlation= PW
                           (   1   4   0   0   0   0   0)


     celldm(1)=   10.18990  celldm(2)=    0.00000  celldm(3)=    0.00000
     celldm(4)=    0.00000  celldm(5)=    0.00000  celldm(6)=    0.00000

     crystal axes: (cart. coord. in units of alat)
               a(1) = ( -0.5000  0.0000  0.5000 )  
               a(2) = (  0.0000  0.5000  0.5000 )  
               a(3) = ( -0.5000  0.5000  0.0000 )  

     reciprocal axes: (cart. coord. in units 2 pi/alat)
               b(1) = ( -1.0000 -1.0000  1.0000 )  
               b(2) = (  1.0000  1.0000  1.0000 )  
               b(3) = ( -1.0000  1.0000 -1.0000 )  


     Atoms inside the unit cell: 

     Cartesian axes

[...]
      thresh= 1.000E-02 alpha_mix =  0.700 |ddv_scf|^2 =  2.746E-06

      iter #   2 total cpu time :  3275.7 secs   av.it.:  11.1
      thresh= 1.657E-04 alpha_mix =  0.700 |ddv_scf|^2 =  3.482E-06

      iter #   3 total cpu time :  3282.4 secs   av.it.:  10.3
      thresh= 1.866E-04 alpha_mix =  0.700 |ddv_scf|^2 =  3.985E-08

      iter #   4 total cpu time :  3289.4 secs   av.it.:  10.5
      thresh= 1.996E-05 alpha_mix =  0.700 |ddv_scf|^2 =  2.005E-10

      iter #   5 total cpu time :  3297.9 secs   av.it.:  10.8
      thresh= 1.416E-06 alpha_mix =  0.700 |ddv_scf|^2 =  5.083E-12

      iter #   6 total cpu time :  3305.3 secs   av.it.:  10.9
      thresh= 2.254E-07 alpha_mix =  0.700 |ddv_scf|^2 =  2.984E-14

      iter #   7 total cpu time :  3312.3 secs   av.it.:  10.8
      thresh= 1.727E-08 alpha_mix =  0.700 |ddv_scf|^2 =  3.301E-15

      iter #   8 total cpu time :  3319.5 secs   av.it.:  10.8
      thresh= 5.746E-09 alpha_mix =  0.700 |ddv_scf|^2 =  9.705E-17

     End of self-consistent calculation

     Convergence has been achieved 


     Representation #   6 mode #   6

     Self-consistent Calculation

      iter #   1 total cpu time :  3324.4 secs   av.it.:   6.3
      thresh= 1.000E-02 alpha_mix =  0.700 |ddv_scf|^2 =  1.290E-06

      iter #   2 total cpu time :  3332.4 secs   av.it.:  11.0
      thresh= 1.136E-04 alpha_mix =  0.700 |ddv_scf|^2 =  1.415E-06

      iter #   3 total cpu time :  3339.1 secs   av.it.:  10.2
      thresh= 1.190E-04 alpha_mix =  0.700 |ddv_scf|^2 =  3.465E-08

      iter #   4 total cpu time :  3346.3 secs   av.it.:  10.4
      thresh= 1.861E-05 alpha_mix =  0.700 |ddv_scf|^2 =  1.131E-10

      iter #   5 total cpu time :  3353.2 secs   av.it.:  10.8
      thresh= 1.063E-06 alpha_mix =  0.700 |ddv_scf|^2 =  2.129E-12

      iter #   6 total cpu time :  3360.4 secs   av.it.:  10.8
      thresh= 1.459E-07 alpha_mix =  0.700 |ddv_scf|^2 =  9.952E-15

      iter #   7 total cpu time :  3367.8 secs   av.it.:  10.8
      thresh= 9.976E-09 alpha_mix =  0.700 |ddv_scf|^2 =  5.677E-16

     End of self-consistent calculation

     Convergence has been achieved 
 
     Number of q in the star =   24
     List of q in the star:
          1   0.500000000  -0.166666667   0.833333333
          2   0.833333333   0.166666667   0.500000000
          3   0.500000000   0.166666667   0.833333333
          4  -0.833333333  -0.166666667   0.500000000
          5  -0.833333333  -0.166666667  -0.500000000
          6  -0.500000000  -0.166666667  -0.833333333
          7   0.833333333  -0.166666667   0.500000000
          8  -0.500000000  -0.166666667   0.833333333
          9  -0.833333333   0.166666667   0.500000000
         10   0.833333333   0.166666667  -0.500000000
         11   0.833333333  -0.166666667  -0.500000000
         12   0.500000000   0.166666667  -0.833333333
         13  -0.500000000   0.166666667   0.833333333
         14  -0.500000000   0.166666667  -0.833333333
         15  -0.833333333   0.166666667  -0.500000000
         16   0.833333333  -0.500000000   0.166666667
         17   0.833333333   0.500000000  -0.166666667
         18  -0.833333333  -0.500000000  -0.166666667
         19  -0.833333333   0.500000000   0.166666667
         20   0.166666667  -0.500000000   0.833333333
         21  -0.166666667   0.500000000   0.833333333
         22   0.166666667   0.500000000  -0.833333333
         23  -0.166666667  -0.500000000  -0.833333333
         24  -0.500000000   0.833333333   0.166666667

     Diagonalizing the dynamical matrix

     q = (    0.500000000  -0.166666667   0.833333333 ) 

 **************************************************************************
     freq (    1) =       5.052004 [THz] =     168.516700 [cm-1]
     freq (    2) =       6.066509 [THz] =     202.356948 [cm-1]
     freq (    3) =       9.812688 [THz] =     327.316050 [cm-1]
     freq (    4) =      11.453261 [THz] =     382.039662 [cm-1]
     freq (    5) =      14.042011 [THz] =     468.391077 [cm-1]
     freq (    6) =      14.270763 [THz] =     476.021420 [cm-1]
 **************************************************************************

     Calculation of q =   -0.3333333  -1.0000000   0.0000000
 
     Parallelization info
     --------------------
     sticks:   dense  smooth     PW     G-vecs:    dense   smooth      PW
     Min          35      35     12                  744      744     151
     Max          36      36     13                  747      747     155
     Sum        1003    1003    349                20875    20875    4279
 
     Using Slab Decomposition
 

     Title: 
     default                                                                    


     bravais-lattice index     =            2
     lattice parameter (alat)  =      10.1899  a.u.
     unit-cell volume          =     264.5151 (a.u.)^3
     number of atoms/cell      =            2
     number of atomic types    =            1
     number of electrons       =         8.00
     number of Kohn-Sham states=            4
     kinetic-energy cutoff     =      70.0000  Ry
     charge density cutoff     =     280.0000  Ry
     Exchange-correlation= PW
                           (   1   4   0   0   0   0   0)

     celldm(1)=  10.189905  celldm(2)=   0.000000  celldm(3)=   0.000000
     celldm(4)=   0.000000  celldm(5)=   0.000000  celldm(6)=   0.000000

     crystal axes: (cart. coord. in units of alat)
               a(1) = (  -0.500000   0.000000   0.500000 )  
               a(2) = (   0.000000   0.500000   0.500000 )  
               a(3) = (  -0.500000   0.500000   0.000000 )  

     reciprocal axes: (cart. coord. in units 2 pi/alat)
               b(1) = ( -1.000000 -1.000000  1.000000 )  
               b(2) = (  1.000000  1.000000  1.000000 )  
               b(3) = ( -1.000000  1.000000 -1.000000 )  


     PseudoPot. # 1 for Si read from file:
     ./pseudos/Si.nc.UPF
     MD5 check sum: 9e2d726316af3d4752eea8ab0afbb951
     Pseudo is Norm-conserving + core correction, Zval =  4.0
     Generated using ONCVPSP code by D. R. Hamann
     Using radial grid of 1510 points,  6 beta functions with: 
                l(1) =   0
                l(2) =   0
                l(3) =   1
                l(4) =   1
                l(5) =   2
                l(6) =   2

     atomic species   valence    mass     pseudopotential
        Si             4.00    28.08550     Si( 1.00)

     48 Sym. Ops., with inversion, found



   Cartesian axes

     site n.     atom                  positions (alat units)
         1           Si  tau(   1) = (   0.0000000   0.0000000   0.0000000  )
         2           Si  tau(   2) = (  -0.2500000   0.2500000   0.2500000  )

     number of k points=   432

     Number of k-points >= 100: set verbosity='high' to print them.

     Dense  grid:    20875 G-vectors     FFT dimensions: (  40,  40,  40)

     Estimated max dynamical RAM per process >       1.82 MB

     Estimated total dynamical RAM >      50.87 MB

     The potential is recalculated from file :
     /fastscratch/tsievers/QE_TMP_DIR/_ph0/silicon_ph_bench_nd_4_n_procs_28_1.save/charge-density

     Starting wfcs are    8 atomic wfcs

     Band Structure Calculation
     Davidson diagonalization with overlap

     ethr =  1.25E-10,  avg # of iterations = 12.8

     total cpu time spent up to now is      261.6 secs

     End of band structure calculation

     Number of k-points >= 100: set verbosity='high' to print the bands.

     highest occupied level (ev):     6.1106

     Writing config to output data dir /fastscratch/tsievers/QE_TMP_DIR/_ph0/silicon_ph_bench_nd_4_n_procs_28_1.save/

     default                                                                    

     bravais-lattice index     =            2
     lattice parameter (alat)  =      10.1899  a.u.
     unit-cell volume          =     264.5151 (a.u.)^3
     number of atoms/cell      =            2
     number of atomic types    =            1
     kinetic-energy cut-off    =      70.0000  Ry
     charge density cut-off    =     280.0000  Ry
     convergence threshold     =      1.0E-15
     beta                      =       0.7000
     number of iterations used =            4
     Exchange-correlation= PW
                           (   1   4   0   0   0   0   0)


     celldm(1)=   10.18990  celldm(2)=    0.00000  celldm(3)=    0.00000
     celldm(4)=    0.00000  celldm(5)=    0.00000  celldm(6)=    0.00000

     crystal axes: (cart. coord. in units of alat)
               a(1) = ( -0.5000  0.0000  0.5000 )  
               a(2) = (  0.0000  0.5000  0.5000 )  
               a(3) = ( -0.5000  0.5000  0.0000 )  

     reciprocal axes: (cart. coord. in units 2 pi/alat)
               b(1) = ( -1.0000 -1.0000  1.0000 )  
               b(2) = (  1.0000  1.0000  1.0000 )  
               b(3) = ( -1.0000  1.0000 -1.0000 )  


     Atoms inside the unit cell: 

     Cartesian axes

     site n.  atom      mass           positions (alat units)
        1     Si  28.0855   tau(    1) = (    0.00000    0.00000    0.00000  )
        2     Si  28.0855   tau(    2) = (   -0.25000    0.25000    0.25000  )

     Computing dynamical matrix for 
                    q = (  -0.3333333  -1.0000000   0.0000000 )
 
      4 Sym.Ops. (no q -> -q+G )


     G cutoff =  736.4420  (    747 G-vectors)     FFT grid: ( 40, 40, 40)
     number of k points=   432

     PseudoPot. # 1 for Si read from file:
     ./pseudos/Si.nc.UPF
     MD5 check sum: 9e2d726316af3d4752eea8ab0afbb951
     Pseudo is Norm-conserving + core correction, Zval =  4.0
     Generated using ONCVPSP code by D. R. Hamann
     Using radial grid of 1510 points,  6 beta functions with: 
                l(1) =   0
                l(2) =   0
                l(3) =   1
                l(4) =   1
                l(5) =   2
                l(6) =   2


     Atomic displacements:
     There are    3 irreducible representations

     Representation     1      2 modes -  To be done

     Representation     2      2 modes -  To be done

     Representation     3      2 modes -  To be done



     Alpha used in Ewald sum =   2.8000
     PHONON       :  52m46.51s CPU  56m21.77s WALL



     Representation #   1 modes #   1   2

     Self-consistent Calculation

      iter #   1 total cpu time :  3386.7 secs   av.it.:   6.2
      thresh= 1.000E-02 alpha_mix =  0.700 |ddv_scf|^2 =  2.573E-07

      iter #   2 total cpu time :  3394.2 secs   av.it.:  11.8
      thresh= 5.072E-05 alpha_mix =  0.700 |ddv_scf|^2 =  2.868E-07

      iter #   3 total cpu time :  3401.3 secs   av.it.:  11.1
      thresh= 5.356E-05 alpha_mix =  0.700 |ddv_scf|^2 =  2.336E-09

      iter #   4 total cpu time :  3408.5 secs   av.it.:  11.2
      thresh= 4.834E-06 alpha_mix =  0.700 |ddv_scf|^2 =  4.740E-11

      iter #   5 total cpu time :  3417.2 secs   av.it.:  11.4
      thresh= 6.885E-07 alpha_mix =  0.700 |ddv_scf|^2 =  5.474E-13

      iter #   6 total cpu time :  3425.0 secs   av.it.:  11.6
      thresh= 7.399E-08 alpha_mix =  0.700 |ddv_scf|^2 =  1.096E-14

      iter #   7 total cpu time :  3432.4 secs   av.it.:  11.5
      thresh= 1.047E-08 alpha_mix =  0.700 |ddv_scf|^2 =  5.699E-16

     End of self-consistent calculation

     Convergence has been achieved 


     Representation #   2 modes #   3   4

     Self-consistent Calculation

      iter #   1 total cpu time :  3437.4 secs   av.it.:   6.4
      thresh= 1.000E-02 alpha_mix =  0.700 |ddv_scf|^2 =  4.664E-07

      iter #   2 total cpu time :  3446.3 secs   av.it.:  11.8
      thresh= 6.830E-05 alpha_mix =  0.700 |ddv_scf|^2 =  5.230E-07

      iter #   3 total cpu time :  3453.7 secs   av.it.:  11.1
      thresh= 7.232E-05 alpha_mix =  0.700 |ddv_scf|^2 =  4.520E-09

      iter #   4 total cpu time :  3460.9 secs   av.it.:  11.2
      thresh= 6.723E-06 alpha_mix =  0.700 |ddv_scf|^2 =  4.716E-11

      iter #   5 total cpu time :  3468.2 secs   av.it.:  11.4
      thresh= 6.868E-07 alpha_mix =  0.700 |ddv_scf|^2 =  1.074E-12

      iter #   6 total cpu time :  3476.1 secs   av.it.:  11.7
      thresh= 1.036E-07 alpha_mix =  0.700 |ddv_scf|^2 =  8.531E-15

      iter #   7 total cpu time :  3483.7 secs   av.it.:  11.6
      thresh= 9.237E-09 alpha_mix =  0.700 |ddv_scf|^2 =  5.357E-16

     End of self-consistent calculation

     Convergence has been achieved 


     Representation #   3 modes #   5   6

     Self-consistent Calculation

      iter #   1 total cpu time :  3488.7 secs   av.it.:   6.5
      thresh= 1.000E-02 alpha_mix =  0.700 |ddv_scf|^2 =  6.178E-07

      iter #   2 total cpu time :  3496.1 secs   av.it.:  11.6
      thresh= 7.860E-05 alpha_mix =  0.700 |ddv_scf|^2 =  6.781E-07

      iter #   3 total cpu time :  3503.6 secs   av.it.:  11.0
      thresh= 8.234E-05 alpha_mix =  0.700 |ddv_scf|^2 =  5.471E-09

      iter #   4 total cpu time :  3511.2 secs   av.it.:  11.1
      thresh= 7.397E-06 alpha_mix =  0.700 |ddv_scf|^2 =  3.717E-11

      iter #   5 total cpu time :  3518.9 secs   av.it.:  11.4
      thresh= 6.097E-07 alpha_mix =  0.700 |ddv_scf|^2 =  3.522E-13

      iter #   6 total cpu time :  3526.3 secs   av.it.:  11.5
      thresh= 5.935E-08 alpha_mix =  0.700 |ddv_scf|^2 =  6.187E-15

      iter #   7 total cpu time :  3533.5 secs   av.it.:  11.4
      thresh= 7.866E-09 alpha_mix =  0.700 |ddv_scf|^2 =  3.714E-16

     End of self-consistent calculation

     Convergence has been achieved 
 
     Number of q in the star =   12
     List of q in the star:
          1  -0.333333333  -1.000000000   0.000000000
          2   0.000000000  -1.000000000  -0.333333333
          3   0.000000000  -1.000000000   0.333333333
          4   0.333333333  -1.000000000   0.000000000
          5  -1.000000000   0.000000000  -0.333333333
          6   1.000000000   0.000000000   0.333333333
          7   0.000000000   0.333333333   1.000000000
          8   0.000000000  -0.333333333  -1.000000000
          9  -1.000000000  -0.333333333   0.000000000
         10   1.000000000   0.333333333   0.000000000
         11  -0.333333333   0.000000000   1.000000000
         12   0.333333333   0.000000000   1.000000000

     Diagonalizing the dynamical matrix

     q = (   -0.333333333  -1.000000000   0.000000000 ) 

 **************************************************************************
     freq (    1) =       5.494053 [THz] =     183.261884 [cm-1]
     freq (    2) =       5.494053 [THz] =     183.261884 [cm-1]
     freq (    3) =      10.966356 [THz] =     365.798256 [cm-1]
     freq (    4) =      10.966356 [THz] =     365.798256 [cm-1]
     freq (    5) =      14.002434 [THz] =     467.070908 [cm-1]
     freq (    6) =      14.002434 [THz] =     467.070908 [cm-1]
 **************************************************************************
 
     init_run     :      0.24s CPU      0.32s WALL (      15 calls)
     electrons    :    242.28s CPU    250.24s WALL (      15 calls)

     Called by init_run:
     wfcinit      :      0.00s CPU      0.02s WALL (      15 calls)
     potinit      :      0.02s CPU      0.03s WALL (      15 calls)
     hinit0       :      0.10s CPU      0.11s WALL (      15 calls)

     Called by electrons:
     c_bands      :    242.28s CPU    250.24s WALL (      15 calls)
     v_of_rho     :      0.01s CPU      0.01s WALL (      16 calls)

     Called by c_bands:
     init_us_2    :      9.50s CPU      9.86s WALL (  248413 calls)
     init_us_2:cp :      8.90s CPU      9.31s WALL (  248413 calls)
     cegterg      :    210.67s CPU    215.50s WALL (    8380 calls)

     Called by *egterg:
     cdiaghg      :     71.24s CPU     72.89s WALL (  115750 calls)
     h_psi        :   2385.60s CPU   2458.60s WALL ( 2440707 calls)
     g_psi        :      0.40s CPU      0.40s WALL (  107370 calls)

     Called by h_psi:
     h_psi:calbec :    115.94s CPU    119.47s WALL ( 2440707 calls)
     vloc_psi     :   2204.98s CPU   2272.43s WALL ( 2440707 calls)
     add_vuspsi   :     44.29s CPU     46.20s WALL ( 2440707 calls)

     General routines
     calbec       :    190.42s CPU    198.17s WALL ( 4900780 calls)
     fft          :      0.80s CPU      0.86s WALL (    3921 calls)
     ffts         :      4.82s CPU      4.96s WALL (   25932 calls)
     fftw         :   2595.63s CPU   2674.92s WALL (20812086 calls)
     davcio       :      9.50s CPU     34.71s WALL ( 1047032 calls)
 
     Parallel routines
 
     PHONON       :  55m11.47s CPU  58m54.58s WALL

     INITIALIZATION: 
     phq_setup    :      0.03s CPU      3.76s WALL (      16 calls)
     phq_init     :      3.93s CPU      4.18s WALL (      16 calls)
 
     phq_init     :      3.93s CPU      4.18s WALL (      16 calls)
     set_drhoc    :      0.33s CPU      0.33s WALL (      48 calls)
     init_vloc    :      0.03s CPU      0.03s WALL (      16 calls)
     init_us_1    :      0.03s CPU      0.03s WALL (      16 calls)
     init_us_2    :      9.50s CPU      9.86s WALL (  248413 calls)
 
     DYNAMICAL MATRIX:
     dynmat0      :      2.78s CPU      2.94s WALL (      16 calls)
     phqscf       :   3053.62s CPU   3236.31s WALL (      16 calls)
     dynmatrix    :      0.07s CPU      0.13s WALL (      16 calls)
 
     phqscf       :   3053.62s CPU   3236.31s WALL (      16 calls)
     solve_linter :   3047.78s CPU   3225.44s WALL (      76 calls)
     drhodv       :      5.76s CPU      6.18s WALL (      76 calls)
 
     dynmat0      :      2.78s CPU      2.94s WALL (      16 calls)
     dynmat_us    :      2.53s CPU      2.62s WALL (      16 calls)
     d2ionq       :      0.00s CPU      0.01s WALL (      16 calls)
     dynmatcc     :      0.23s CPU      0.23s WALL (      16 calls)
 
     dynmat_us    :      2.53s CPU      2.62s WALL (      16 calls)
 
     phqscf       :   3053.62s CPU   3236.31s WALL (      16 calls)
     solve_linter :   3047.78s CPU   3225.44s WALL (      76 calls)
 
     solve_linter :   3047.78s CPU   3225.44s WALL (      76 calls)
     dvqpsi_us    :     33.73s CPU     34.74s WALL (   25476 calls)
     sth_kernel   :   2985.73s CPU   3100.30s WALL (     581 calls)
     apply_dpot_b :    179.01s CPU    185.50s WALL (  174959 calls)
     ortho        :      7.81s CPU      8.11s WALL (  200435 calls)
     cgsolve      :   2498.85s CPU   2576.53s WALL (  200435 calls)
     incdrhoscf   :    279.16s CPU    286.33s WALL (  200351 calls)
     dv_of_drho   :      0.42s CPU      0.42s WALL (     708 calls)
     mix_pot      :      2.97s CPU     35.90s WALL (     581 calls)
     psymdvscf    :      8.42s CPU      8.48s WALL (     576 calls)
 
     dvqpsi_us    :     33.73s CPU     34.74s WALL (   25476 calls)
     dvqpsi_us_on :      3.15s CPU      3.24s WALL (   25476 calls)
 
     cgsolve      :   2498.85s CPU   2576.53s WALL (  200435 calls)
     ch_psi       :   2422.40s CPU   2496.62s WALL ( 2316577 calls)
 
     ch_psi       :   2422.40s CPU   2496.62s WALL ( 2316577 calls)
     h_psi        :   2385.60s CPU   2458.60s WALL ( 2440707 calls)
     last         :    142.78s CPU    147.39s WALL ( 2316577 calls)
 
     h_psi        :   2385.60s CPU   2458.60s WALL ( 2440707 calls)
     add_vuspsi   :     44.29s CPU     46.20s WALL ( 2440707 calls)
 
     incdrhoscf   :    279.16s CPU    286.33s WALL (  200351 calls)
 
 
      General routines
     calbec       :    190.42s CPU    198.17s WALL ( 4900780 calls)
     fft          :      0.80s CPU      0.86s WALL (    3921 calls)
     ffts         :      4.82s CPU      4.96s WALL (   25932 calls)
     fftw         :   2595.63s CPU   2674.92s WALL (20812086 calls)
     davcio       :      9.50s CPU     34.71s WALL ( 1047032 calls)
     write_rec    :      0.49s CPU     36.39s WALL (     657 calls)
 
 
     PHONON       :  55m11.47s CPU  58m54.58s WALL

 
   This run was terminated on:  19:34:13  27Jun2022            

=------------------------------------------------------------------------------=
   JOB DONE.
=------------------------------------------------------------------------------=
real 3538.75
user 66798.12
sys 1966.32
