Module for gcc 10.2:
(GNU C/C++/FORTRAN compilers v10.2.0) - loaded.
Module for OpenMPI 4.1.0-gcc10.2-infiniband loaded.

     Program PWSCF v.7.0 starts on 17Feb2022 at 14:24:51 

     This program is part of the open-source Quantum ESPRESSO suite
     for quantum simulation of materials; please cite
         "P. Giannozzi et al., J. Phys.:Condens. Matter 21 395502 (2009);
         "P. Giannozzi et al., J. Phys.:Condens. Matter 29 465901 (2017);
         "P. Giannozzi et al., J. Chem. Phys. 152 154105 (2020);
          URL http://www.quantum-espresso.org", 
     in publications or presentations arising from this work. More details at
     http://www.quantum-espresso.org/quote

     Parallel version (MPI), running on    48 processors

     MPI processes distributed on     3 nodes
     K-points division:     npool     =       2
     R & G space division:  proc/nbgrp/npool/nimage =      24
     47326 MiB available memory on the printing compute node when the environment starts

     Reading input from in_files/silicon_bench_nk_2_n_procs_48.scf

     Current dimensions of program PWSCF are:
     Max number of different atomic species (ntypx) = 10
     Max number of k-points (npk) =  40000
     Max angular momentum in pseudopotentials (lmaxx) =  4

     Subspace diagonalization in iterative solution of the eigenvalue problem:
     a serial algorithm will be used


     Parallelization info
     --------------------
     sticks:   dense  smooth     PW     G-vecs:    dense   smooth      PW
     Min          41      41     12                  868      868     143
     Max          42      42     13                  871      871     146
     Sum        1003    1003    301                20875    20875    3479

     Using Slab Decomposition



     bravais-lattice index     =            2
     lattice parameter (alat)  =      10.2000  a.u.
     unit-cell volume          =     265.3020 (a.u.)^3
     number of atoms/cell      =            2
     number of atomic types    =            1
     number of electrons       =         8.00
     number of Kohn-Sham states=            4
     kinetic-energy cutoff     =      70.0000  Ry
     charge density cutoff     =     280.0000  Ry
     scf convergence threshold =      1.0E-12
     mixing beta               =       0.7000
     number of iterations used =            8  plain     mixing
     Exchange-correlation= PBE
                           (   1   4   3   4   0   0   0)

     celldm(1)=  10.200000  celldm(2)=   0.000000  celldm(3)=   0.000000
     celldm(4)=   0.000000  celldm(5)=   0.000000  celldm(6)=   0.000000

     crystal axes: (cart. coord. in units of alat)
               a(1) = (  -0.500000   0.000000   0.500000 )  
               a(2) = (   0.000000   0.500000   0.500000 )  
               a(3) = (  -0.500000   0.500000   0.000000 )  

     reciprocal axes: (cart. coord. in units 2 pi/alat)
               b(1) = ( -1.000000 -1.000000  1.000000 )  
               b(2) = (  1.000000  1.000000  1.000000 )  
               b(3) = ( -1.000000  1.000000 -1.000000 )  


     PseudoPot. # 1 for Si read from file:
     ./pseudos/Si_pbe_v0.4.1.nc.sr.upf
     MD5 check sum: 02fab3f35e82123ef5bf1cb05d5b1a5e
     Pseudo is Norm-conserving + core correction, Zval =  4.0
     Generated using ONCVPSP code by D. R. Hamann
     Using radial grid of 1510 points,  6 beta functions with: 
                l(1) =   0
                l(2) =   0
                l(3) =   1
                l(4) =   1
                l(5) =   2
                l(6) =   2

     atomic species   valence    mass     pseudopotential
        Si             4.00    28.08600     Si( 1.00)

     48 Sym. Ops., with inversion, found (24 have fractional translation)



   Cartesian axes

     site n.     atom                  positions (alat units)
         1           Si  tau(   1) = (   0.0000000   0.0000000   0.0000000  )
         2           Si  tau(   2) = (   0.2500000   0.2500000   0.2500000  )

     number of k points=  1661

     Number of k-points >= 100: set verbosity='high' to print them.

     Dense  grid:    20875 G-vectors     FFT dimensions: (  40,  40,  40)

     Estimated max dynamical RAM per process >       7.55 MB

     Estimated total dynamical RAM >     357.40 MB

     Initial potential from superposition of free atoms

     starting charge       7.9988, renormalised to       8.0000
     Starting wfcs are    8 randomized atomic wfcs

     total cpu time spent up to now is       34.7 secs

     Self-consistent Calculation

     iteration #  1     ecut=    70.00 Ry     beta= 0.70
     Davidson diagonalization with overlap
     ethr =  1.00E-02,  avg # of iterations =  2.0

     Threshold (ethr) on eigenvalues was too large:
     Diagonalizing with lowered threshold

     Davidson diagonalization with overlap
     ethr =  5.86E-04,  avg # of iterations =  2.0

     total cpu time spent up to now is      101.7 secs

     total energy              =     -16.92149414 Ry
     estimated scf accuracy    <       0.05529855 Ry

     iteration #  2     ecut=    70.00 Ry     beta= 0.70
     Davidson diagonalization with overlap
     ethr =  6.91E-04,  avg # of iterations =  1.0

     total cpu time spent up to now is      127.0 secs

     total energy              =     -16.92319864 Ry
     estimated scf accuracy    <       0.00290976 Ry

     iteration #  3     ecut=    70.00 Ry     beta= 0.70
     Davidson diagonalization with overlap
     ethr =  3.64E-05,  avg # of iterations =  2.3

     total cpu time spent up to now is      163.5 secs

     total energy              =     -16.92386809 Ry
     estimated scf accuracy    <       0.00006644 Ry

     iteration #  4     ecut=    70.00 Ry     beta= 0.70
     Davidson diagonalization with overlap
     ethr =  8.30E-07,  avg # of iterations =  5.1

     total cpu time spent up to now is      217.8 secs

     total energy              =     -16.92395270 Ry
     estimated scf accuracy    <       0.00000027 Ry

     iteration #  5     ecut=    70.00 Ry     beta= 0.70
     Davidson diagonalization with overlap
     ethr =  3.36E-09,  avg # of iterations =  6.5

     total cpu time spent up to now is      284.6 secs

     total energy              =     -16.92395445 Ry
     estimated scf accuracy    <          9.6E-09 Ry

     iteration #  6     ecut=    70.00 Ry     beta= 0.70
     Davidson diagonalization with overlap
     ethr =  1.20E-10,  avg # of iterations =  3.5

     total cpu time spent up to now is      328.1 secs

     total energy              =     -16.92395445 Ry
     estimated scf accuracy    <          8.2E-10 Ry

     iteration #  7     ecut=    70.00 Ry     beta= 0.70
     Davidson diagonalization with overlap
     ethr =  1.02E-11,  avg # of iterations =  3.4

     total cpu time spent up to now is      370.9 secs

     total energy              =     -16.92395445 Ry
     estimated scf accuracy    <          1.3E-10 Ry

     iteration #  8     ecut=    70.00 Ry     beta= 0.70
     Davidson diagonalization with overlap
     ethr =  1.65E-12,  avg # of iterations =  2.4

     total cpu time spent up to now is      405.0 secs

     End of self-consistent calculation

     Number of k-points >= 100: set verbosity='high' to print the bands.

     highest occupied level (ev):     6.4228

!    total energy              =     -16.92395445 Ry
     estimated scf accuracy    <          1.7E-13 Ry

     The total energy is the sum of the following terms:
     one-electron contribution =       5.10086345 Ry
     hartree contribution      =       1.07923934 Ry
     xc contribution           =      -6.20429866 Ry
     ewald contribution        =     -16.89975857 Ry

     convergence has been achieved in   8 iterations

     Writing all to output data dir /fastscratch/tsievers/QE_TMP_DIR/silicon_bench_nk_2_n_procs_48.save/

     init_run     :     11.63s CPU     18.73s WALL (       1 calls)
     electrons    :    226.79s CPU    370.39s WALL (       1 calls)

     Called by init_run:
     wfcinit      :     11.40s CPU     18.46s WALL (       1 calls)
     potinit      :      0.02s CPU      0.03s WALL (       1 calls)
     hinit0       :      0.18s CPU      0.18s WALL (       1 calls)

     Called by electrons:
     c_bands      :    202.41s CPU    330.30s WALL (       9 calls)
     sum_band     :     24.17s CPU     39.74s WALL (       9 calls)
     v_of_rho     :      0.13s CPU      0.19s WALL (       9 calls)
     mix_rho      :      0.02s CPU      0.03s WALL (       9 calls)

     Called by c_bands:
     init_us_2    :      0.53s CPU      0.85s WALL (   15789 calls)
     init_us_2:cp :      0.51s CPU      0.82s WALL (   15789 calls)
     cegterg      :    189.20s CPU    308.02s WALL (    7479 calls)

     Called by *egterg:
     cdiaghg      :      0.75s CPU      1.21s WALL (   31194 calls)
     h_psi        :    178.39s CPU    290.46s WALL (   32856 calls)
     g_psi        :      0.06s CPU      0.09s WALL (   24546 calls)

     Called by h_psi:
     h_psi:calbec :     21.11s CPU     34.57s WALL (   32856 calls)
     vloc_psi     :    156.53s CPU    254.68s WALL (   32856 calls)
     add_vuspsi   :      0.61s CPU      0.98s WALL (   32856 calls)

     General routines
     calbec       :     21.06s CPU     34.50s WALL (   32856 calls)
     fft          :      0.26s CPU      0.31s WALL (      91 calls)
     ffts         :      0.02s CPU      0.03s WALL (       9 calls)
     fftw         :    179.54s CPU    292.58s WALL (  249388 calls)

     Parallel routines

     PWSCF        :   4m18.08s CPU   7m10.73s WALL


   This run was terminated on:  14:32: 2  17Feb2022            

=------------------------------------------------------------------------------=
   JOB DONE.
=------------------------------------------------------------------------------=
