
     Program PHONON v.7.0 starts on  7Jun2022 at 13:51:10 

     This program is part of the open-source Quantum ESPRESSO suite
     for quantum simulation of materials; please cite
         "P. Giannozzi et al., J. Phys.:Condens. Matter 21 395502 (2009);
         "P. Giannozzi et al., J. Phys.:Condens. Matter 29 465901 (2017);
         "P. Giannozzi et al., J. Chem. Phys. 152 154105 (2020);
          URL http://www.quantum-espresso.org", 
     in publications or presentations arising from this work. More details at
     http://www.quantum-espresso.org/quote

     Parallel version (MPI), running on   144 processors

     MPI processes distributed on     8 nodes
     path-images division:  nimage    =       2
     K-points division:     npool     =       4
     R & G space division:  proc/nbgrp/npool/nimage =      18
     49647 MiB available memory on the printing compute node when the environment starts
 
     Reading input from /fastscratch/tsievers/TaS2_24_ph_benchmark_images/TaS2_24_ph_bench_nimages_2_n_procs_144_0.ph

     Reading xml data from directory:

     /fastscratch/tsievers/QE_TMP_DIR/TaS2_24_ph_bench_nimages_2_n_procs_144_0.save/

     IMPORTANT: XC functional enforced from input :
     Exchange-correlation= PBE
                           (   1   4   3   4   0   0   0)
     Any further DFT definition will be discarded
     Please, verify this is what you really want

 
     Parallelization info
     --------------------
     sticks:   dense  smooth     PW     G-vecs:    dense   smooth      PW
     Min          60      31      9                 7329     2593     419
     Max          62      32     10                 7342     2605     434
     Sum        1099     559    163               132031    46753    7647
 
     Using Slab Decomposition
 
 ----2D----2D----2D----2D----2D----2D----2D----2D----2D----2D----2D----2D
  The code is running with the 2D cutoff
  Please refer to:
  Sohier, T., Calandra, M., & Mauri, F. (2017), 
  Density functional perturbation theory for gated two-dimensional heterostructu
 res:
  Theoretical developments and application to flexural phonons in graphene.
  Physical Review B, 96(7), 75448. https://doi.org/10.1103/PhysRevB.96.075448
 ----2D----2D----2D----2D----2D----2D----2D----2D----2D----2D----2D----2D
     Reading collected, re-writing distributed wavefunctions


     Dynamical matrices for (12,12, 1)  uniform grid of q-points
     (  19 q-points):
       N         xq(1)         xq(2)         xq(3) 
       1   0.000000000   0.000000000   0.000000000
       2   0.000000000   0.096225045   0.000000000
       3   0.000000000   0.192450090   0.000000000
       4   0.000000000   0.288675135   0.000000000
       5   0.000000000   0.384900179   0.000000000
       6   0.000000000   0.481125224   0.000000000
       7   0.000000000  -0.577350269   0.000000000
       8   0.083333333   0.144337567   0.000000000
       9   0.083333333   0.240562612   0.000000000
      10   0.083333333   0.336787657   0.000000000
      11   0.083333333   0.433012702   0.000000000
      12   0.083333333   0.529237747   0.000000000
      13   0.166666667   0.288675135   0.000000000
      14   0.166666667   0.384900179   0.000000000
      15   0.166666667   0.481125224   0.000000000
      16   0.166666667   0.577350269   0.000000000
      17   0.250000000   0.433012702   0.000000000
      18   0.250000000   0.529237747   0.000000000
      19   0.333333333   0.577350269   0.000000000

     Saving dvscf to file. Distribute only q points, not irreducible represetations.

      Image parallelization. There are  2 images and     2 representations
      The estimated total work is   870 self-consistent (scf) runs
      I am image number     0 and my work is about  430 scf runs. I calculate: 
      q point number     1, representations:
       0 1 2 3 4 5 6
      q point number     2, representations:
       0 1 2 3 4 5 6 7 8 9
      q point number     3, representations:
       0 1 2 3 4 5 6 7 8 9
      q point number     4, representations:
       0 1 2 3 4 5 6 7 8 9
      q point number     5, representations:
       0 1 2 3 4 5 6 7 8 9
      q point number     6, representations:
       0 1 2 3 4 5 6 7 8 9
      q point number     7, representations:
       0 1 2 3 4 5 6 7 8 9
      q point number     8, representations:
       0 1 2 3 4 5 6 7 8 9
      q point number     9, representations:
       0 1 2 3 4 5 6 7 8 9
      q point number    10, representations:
       0 1 2 3 4 5 6 7 8 9
      q point number    11, representations:
       0 1 2 3 4 5 6 7 8 9

     Calculation of q =    0.0000000   0.0000000   0.0000000

     TaS2                                                                       

     bravais-lattice index     =            4
     lattice parameter (alat)  =       6.3117  a.u.
     unit-cell volume          =     977.9382 (a.u.)^3
     number of atoms/cell      =            3
     number of atomic types    =            2
     kinetic-energy cut-off    =      50.0000  Ry
     charge density cut-off    =     400.0000  Ry
     convergence threshold     =      1.0E-21
     beta                      =       0.7000
     number of iterations used =            4
     Exchange-correlation= PBE
                           (   1   4   3   4   0   0   0)


     celldm(1)=    6.31169  celldm(2)=    0.00000  celldm(3)=    4.49102
     celldm(4)=    0.00000  celldm(5)=    0.00000  celldm(6)=    0.00000

     crystal axes: (cart. coord. in units of alat)
               a(1) = (  1.0000  0.0000  0.0000 )  
               a(2) = ( -0.5000  0.8660  0.0000 )  
               a(3) = (  0.0000  0.0000  4.4910 )  

     reciprocal axes: (cart. coord. in units 2 pi/alat)
               b(1) = (  1.0000  0.5774  0.0000 )  
               b(2) = (  0.0000  1.1547  0.0000 )  
               b(3) = (  0.0000  0.0000  0.2227 )  


     Atoms inside the unit cell: 

     Cartesian axes

     site n.  atom      mass           positions (alat units)
        1     S   32.0600   tau(    1) = (   -0.00000    0.57735    0.46790  )
        2     Ta 180.9500   tau(    2) = (    0.00000    0.00000    0.00000  )
        3     S   32.0600   tau(    3) = (   -0.00000    0.57735   -0.46790  )

     Computing dynamical matrix for 
                    q = (   0.0000000   0.0000000   0.0000000 )
 
     13 Sym.Ops. (with q -> -q+G )


     G cutoff =  403.6370  (   7330 G-vectors)     FFT grid: ( 45, 45,192)
     G cutoff =  201.8185  (   2599 G-vectors)  smooth grid: ( 30, 30,128)

     number of k points=    61  Marzari-Vanderbilt smearing, width (Ry)=  0.0060

     PseudoPot. # 1 for Ta read from file:
     /fastscratch/tsievers/TaS2_24_ph_benchmark_images//pseudos/Ta.pbe-hgh.UPF
     MD5 check sum: 129c51a9a4223465c43ca8d238d17e53
     Pseudo is Norm-conserving, Zval =  5.0
     Generated in analytical, separable form
     Using radial grid of 1273 points,  6 beta functions with: 
                l(1) =   0
                l(2) =   0
                l(3) =   1
                l(4) =   1
                l(5) =   2
                l(6) =   2

     PseudoPot. # 2 for S  read from file:
     /fastscratch/tsievers/TaS2_24_ph_benchmark_images//pseudos/S.pbe-hgh.UPF
     MD5 check sum: 3a21e384b95a7cc84d045d3bcc0c4ba8
     Pseudo is Norm-conserving, Zval =  6.0
     Generated in analytical, separable form
     Using radial grid of 1151 points,  3 beta functions with: 
                l(1) =   0
                l(2) =   0
                l(3) =   1

     Mode symmetry, D_3h (-62m) point group:


     Atomic displacements:
     There are    6 irreducible representations

     Representation     1      1 modes -  To be done

     Representation     2      2 modes -  To be done

     Representation     3      2 modes -  To be done

     Representation     4      1 modes -  To be done

     Representation     5      1 modes -  To be done

     Representation     6      2 modes -  To be done



     Alpha used in Ewald sum =   2.8000
     PHONON       :      0.97s CPU      3.96s WALL



     Representation #   1 mode #   1

     Self-consistent Calculation
 
     Pert. #  1: Fermi energy shift (Ry) =    -2.3654E+00    -3.3881E-20

      iter #   1 total cpu time :     4.9 secs   av.it.:   9.1
      thresh= 1.000E-02 alpha_mix =  0.700 |ddv_scf|^2 =  3.675E-05
 
     Pert. #  1: Fermi energy shift (Ry) =     5.2009E+00     4.7646E-22

      iter #   2 total cpu time :    11.0 secs   av.it.:  15.1
      thresh= 6.062E-04 alpha_mix =  0.700 |ddv_scf|^2 =  2.117E-04
 
     Pert. #  1: Fermi energy shift (Ry) =    -2.3845E-01    -2.1176E-21

      iter #   3 total cpu time :    13.6 secs   av.it.:  13.4
      thresh= 1.455E-03 alpha_mix =  0.700 |ddv_scf|^2 =  8.226E-07
 
     Pert. #  1: Fermi energy shift (Ry) =     3.6109E-02     5.9557E-23

      iter #   4 total cpu time :    15.1 secs   av.it.:  14.0
      thresh= 9.070E-05 alpha_mix =  0.700 |ddv_scf|^2 =  4.244E-08
 
     Pert. #  1: Fermi energy shift (Ry) =    -2.2914E-02    -4.5495E-24

      iter #   5 total cpu time :    16.6 secs   av.it.:  13.7
      thresh= 2.060E-05 alpha_mix =  0.700 |ddv_scf|^2 =  3.500E-11
 
     Pert. #  1: Fermi energy shift (Ry) =    -2.4895E-02     3.1019E-25

      iter #   6 total cpu time :    21.8 secs   av.it.:  14.6
      thresh= 5.916E-07 alpha_mix =  0.700 |ddv_scf|^2 =  3.487E-13
 
     Pert. #  1: Fermi energy shift (Ry) =    -2.5270E-02     7.1086E-26

      iter #   7 total cpu time :    25.2 secs   av.it.:  12.8
      thresh= 5.905E-08 alpha_mix =  0.700 |ddv_scf|^2 =  9.471E-15
 
     Pert. #  1: Fermi energy shift (Ry) =    -2.5355E-02    -4.4429E-27

      iter #   8 total cpu time :    27.4 secs   av.it.:  15.1
      thresh= 9.732E-09 alpha_mix =  0.700 |ddv_scf|^2 =  2.903E-16
 
     Pert. #  1: Fermi energy shift (Ry) =    -2.5344E-02     4.4429E-27

      iter #   9 total cpu time :    29.7 secs   av.it.:  15.0
      thresh= 1.704E-09 alpha_mix =  0.700 |ddv_scf|^2 =  2.247E-16
 
     Pert. #  1: Fermi energy shift (Ry) =    -2.5338E-02     5.6546E-27

      iter #  10 total cpu time :    31.3 secs   av.it.:  13.9
      thresh= 1.499E-09 alpha_mix =  0.700 |ddv_scf|^2 =  6.095E-18
 
     Pert. #  1: Fermi energy shift (Ry) =    -2.5340E-02     5.6546E-27

      iter #  11 total cpu time :    35.7 secs   av.it.:  15.1
      thresh= 2.469E-10 alpha_mix =  0.700 |ddv_scf|^2 =  3.191E-21
 
     Pert. #  1: Fermi energy shift (Ry) =    -2.5340E-02     5.6546E-27

      iter #  12 total cpu time :    41.9 secs   av.it.:  15.0
      thresh= 5.649E-12 alpha_mix =  0.700 |ddv_scf|^2 =  1.662E-22

     End of self-consistent calculation

     Convergence has been achieved 


     Representation #   2 modes #   2   3

     Self-consistent Calculation
 
     Pert. #  1: Fermi energy shift (Ry) =    -2.8912E-19     1.8808E-36
     Pert. #  2: Fermi energy shift (Ry) =     2.8912E-18    -3.1347E-37

      iter #   1 total cpu time :    50.3 secs   av.it.:   6.9
      thresh= 1.000E-02 alpha_mix =  0.700 |ddv_scf|^2 =  1.736E-09
 
     Pert. #  1: Fermi energy shift (Ry) =     8.6736E-19    -1.1020E-39
     Pert. #  2: Fermi energy shift (Ry) =     2.8912E-19    -6.1224E-40

      iter #   2 total cpu time :    57.8 secs   av.it.:  17.1
      thresh= 4.166E-06 alpha_mix =  0.700 |ddv_scf|^2 =  1.189E-10
 
     Pert. #  1: Fermi energy shift (Ry) =     2.6021E-18     6.1224E-40
     Pert. #  2: Fermi energy shift (Ry) =     2.8912E-19     4.2857E-40

      iter #   3 total cpu time :    61.4 secs   av.it.:  16.6
      thresh= 1.090E-06 alpha_mix =  0.700 |ddv_scf|^2 =  1.226E-11
 
     Pert. #  1: Fermi energy shift (Ry) =     3.1803E-18    -9.1835E-41
     Pert. #  2: Fermi energy shift (Ry) =     0.0000E+00    -1.5306E-41

      iter #   4 total cpu time :    68.1 secs   av.it.:  16.7
      thresh= 3.501E-07 alpha_mix =  0.700 |ddv_scf|^2 =  2.266E-13
 
     Pert. #  1: Fermi energy shift (Ry) =     4.3368E-18     3.4438E-41
     Pert. #  2: Fermi energy shift (Ry) =     2.8912E-19     1.9132E-41

      iter #   5 total cpu time :    75.2 secs   av.it.:  17.0
      thresh= 4.760E-08 alpha_mix =  0.700 |ddv_scf|^2 =  3.638E-15
 
     Pert. #  1: Fermi energy shift (Ry) =     4.0477E-18    -9.5662E-43
     Pert. #  2: Fermi energy shift (Ry) =    -5.7824E-19    -1.0762E-42

      iter #   6 total cpu time :    85.0 secs   av.it.:  17.2
      thresh= 6.032E-09 alpha_mix =  0.700 |ddv_scf|^2 =  2.452E-17
 
     Pert. #  1: Fermi energy shift (Ry) =     2.6021E-18    -9.7157E-44
     Pert. #  2: Fermi energy shift (Ry) =    -5.7824E-19     7.4736E-45

      iter #   7 total cpu time :    90.8 secs   av.it.:  17.3
      thresh= 4.951E-10 alpha_mix =  0.700 |ddv_scf|^2 =  5.307E-19
 
     Pert. #  1: Fermi energy shift (Ry) =     2.3130E-18     5.9789E-44
     Pert. #  2: Fermi energy shift (Ry) =    -5.7824E-19    -5.2315E-44

      iter #   8 total cpu time :    95.4 secs   av.it.:  16.4
      thresh= 7.285E-11 alpha_mix =  0.700 |ddv_scf|^2 =  8.869E-21
 
     Pert. #  1: Fermi energy shift (Ry) =     8.6736E-19     0.0000E+00
     Pert. #  2: Fermi energy shift (Ry) =     1.7347E-18     5.2315E-44

      iter #   9 total cpu time :   102.7 secs   av.it.:  16.3
      thresh= 9.418E-12 alpha_mix =  0.700 |ddv_scf|^2 =  4.364E-23

     End of self-consistent calculation

     Convergence has been achieved 


     Representation #   3 modes #   4   5

     Self-consistent Calculation
 
     Pert. #  1: Fermi energy shift (Ry) =    -4.3368E-19    -2.5077E-37
     Pert. #  2: Fermi energy shift (Ry) =    -5.7824E-19    -1.2539E-37

      iter #   1 total cpu time :   106.6 secs   av.it.:   7.8
      thresh= 1.000E-02 alpha_mix =  0.700 |ddv_scf|^2 =  1.530E-08
 
     Pert. #  1: Fermi energy shift (Ry) =    -1.4456E-18     1.2245E-40
     Pert. #  2: Fermi energy shift (Ry) =    -8.6736E-19     8.5713E-40

      iter #   2 total cpu time :   110.6 secs   av.it.:  17.4
      thresh= 1.237E-05 alpha_mix =  0.700 |ddv_scf|^2 =  1.612E-09
 
     Pert. #  1: Fermi energy shift (Ry) =    -1.1565E-18    -6.1224E-41
     Pert. #  2: Fermi energy shift (Ry) =     0.0000E+00    -4.2857E-40

      iter #   3 total cpu time :   117.2 secs   av.it.:  17.0
      thresh= 4.015E-06 alpha_mix =  0.700 |ddv_scf|^2 =  5.840E-11
 
     Pert. #  1: Fermi energy shift (Ry) =    -1.7347E-18     3.0612E-41
     Pert. #  2: Fermi energy shift (Ry) =     7.2280E-19     1.5306E-41

      iter #   4 total cpu time :   133.9 secs   av.it.:  15.4
      thresh= 7.642E-07 alpha_mix =  0.700 |ddv_scf|^2 =  2.109E-14
 
     Pert. #  1: Fermi energy shift (Ry) =     5.7824E-19    -4.7831E-43
     Pert. #  2: Fermi energy shift (Ry) =     1.4456E-19     0.0000E+00

      iter #   5 total cpu time :   143.4 secs   av.it.:  16.6
      thresh= 1.452E-08 alpha_mix =  0.700 |ddv_scf|^2 =  9.088E-16
 
     Pert. #  1: Fermi energy shift (Ry) =     2.8912E-19     5.9789E-44
     Pert. #  2: Fermi energy shift (Ry) =     1.0119E-18     4.1852E-43

      iter #   6 total cpu time :   148.1 secs   av.it.:  17.0
      thresh= 3.015E-09 alpha_mix =  0.700 |ddv_scf|^2 =  1.481E-17
 
     Pert. #  1: Fermi energy shift (Ry) =    -2.0238E-18     4.4842E-44
     Pert. #  2: Fermi energy shift (Ry) =    -1.3010E-18     5.9789E-44

      iter #   7 total cpu time :   152.4 secs   av.it.:  17.3
      thresh= 3.848E-10 alpha_mix =  0.700 |ddv_scf|^2 =  1.926E-19
 
     Pert. #  1: Fermi energy shift (Ry) =    -8.6736E-19     4.4842E-44
     Pert. #  2: Fermi energy shift (Ry) =    -1.4456E-18     5.9789E-44

      iter #   8 total cpu time :   162.8 secs   av.it.:  17.3
      thresh= 4.389E-11 alpha_mix =  0.700 |ddv_scf|^2 =  3.090E-21
 
     Pert. #  1: Fermi energy shift (Ry) =    -2.8912E-19     4.4842E-44
     Pert. #  2: Fermi energy shift (Ry) =     0.0000E+00     5.9789E-44

      iter #   9 total cpu time :   166.5 secs   av.it.:  17.5
      thresh= 5.559E-12 alpha_mix =  0.700 |ddv_scf|^2 =  4.304E-23

     End of self-consistent calculation

     Convergence has been achieved 


     Representation #   4 mode #   6

     Self-consistent Calculation
 
     Pert. #  1: Fermi energy shift (Ry) =     0.0000E+00     0.0000E+00

      iter #   1 total cpu time :   169.5 secs   av.it.:   8.6
      thresh= 1.000E-02 alpha_mix =  0.700 |ddv_scf|^2 =  1.561E-04
 
     Pert. #  1: Fermi energy shift (Ry) =     0.0000E+00     0.0000E+00

      iter #   2 total cpu time :   171.0 secs   av.it.:  14.5
      thresh= 1.249E-03 alpha_mix =  0.700 |ddv_scf|^2 =  6.890E-03
 
     Pert. #  1: Fermi energy shift (Ry) =     0.0000E+00     0.0000E+00

      iter #   3 total cpu time :   179.5 secs   av.it.:  11.0
      thresh= 8.301E-03 alpha_mix =  0.700 |ddv_scf|^2 =  1.498E-08
 
     Pert. #  1: Fermi energy shift (Ry) =     0.0000E+00     0.0000E+00

      iter #   4 total cpu time :   186.6 secs   av.it.:  15.5
      thresh= 1.224E-05 alpha_mix =  0.700 |ddv_scf|^2 =  5.041E-08
 
     Pert. #  1: Fermi energy shift (Ry) =     0.0000E+00     0.0000E+00

      iter #   5 total cpu time :   189.0 secs   av.it.:  12.9
      thresh= 2.245E-05 alpha_mix =  0.700 |ddv_scf|^2 =  1.055E-09
 
     Pert. #  1: Fermi energy shift (Ry) =     0.0000E+00     0.0000E+00

      iter #   6 total cpu time :   191.3 secs   av.it.:  12.5
      thresh= 3.247E-06 alpha_mix =  0.700 |ddv_scf|^2 =  1.840E-10
 
     Pert. #  1: Fermi energy shift (Ry) =     0.0000E+00     0.0000E+00

      iter #   7 total cpu time :   194.7 secs   av.it.:  11.9
      thresh= 1.357E-06 alpha_mix =  0.700 |ddv_scf|^2 =  4.103E-13
 
     Pert. #  1: Fermi energy shift (Ry) =     0.0000E+00     0.0000E+00

      iter #   8 total cpu time :   198.3 secs   av.it.:  12.1
      thresh= 6.406E-08 alpha_mix =  0.700 |ddv_scf|^2 =  2.372E-16
 
     Pert. #  1: Fermi energy shift (Ry) =     0.0000E+00     0.0000E+00

      iter #   9 total cpu time :   201.8 secs   av.it.:  15.5
      thresh= 1.540E-09 alpha_mix =  0.700 |ddv_scf|^2 =  7.796E-16
 
     Pert. #  1: Fermi energy shift (Ry) =     0.0000E+00     0.0000E+00

      iter #  10 total cpu time :   203.5 secs   av.it.:  11.4
      thresh= 2.792E-09 alpha_mix =  0.700 |ddv_scf|^2 =  2.140E-16
 
     Pert. #  1: Fermi energy shift (Ry) =     0.0000E+00     0.0000E+00

      iter #  11 total cpu time :   205.6 secs   av.it.:  11.7
      thresh= 1.463E-09 alpha_mix =  0.700 |ddv_scf|^2 =  8.006E-19
 
     Pert. #  1: Fermi energy shift (Ry) =     0.0000E+00     0.0000E+00

      iter #  12 total cpu time :   208.3 secs   av.it.:  11.8
      thresh= 8.947E-11 alpha_mix =  0.700 |ddv_scf|^2 =  1.121E-21
 
     Pert. #  1: Fermi energy shift (Ry) =     0.0000E+00     0.0000E+00

      iter #  13 total cpu time :   217.0 secs   av.it.:  14.1
      thresh= 3.348E-12 alpha_mix =  0.700 |ddv_scf|^2 =  1.352E-21
 
     Pert. #  1: Fermi energy shift (Ry) =     0.0000E+00     0.0000E+00

      iter #  14 total cpu time :   226.1 secs   av.it.:  11.5
      thresh= 3.677E-12 alpha_mix =  0.700 |ddv_scf|^2 =  3.811E-24

     End of self-consistent calculation

     Convergence has been achieved 


     Representation #   5 mode #   7

     Self-consistent Calculation
 
     Pert. #  1: Fermi energy shift (Ry) =     0.0000E+00     0.0000E+00

      iter #   1 total cpu time :   232.5 secs   av.it.:   8.8
      thresh= 1.000E-02 alpha_mix =  0.700 |ddv_scf|^2 =  2.721E-04
 
     Pert. #  1: Fermi energy shift (Ry) =     0.0000E+00     0.0000E+00

      iter #   2 total cpu time :   234.0 secs   av.it.:  14.5
      thresh= 1.649E-03 alpha_mix =  0.700 |ddv_scf|^2 =  1.145E-02
 
     Pert. #  1: Fermi energy shift (Ry) =     0.0000E+00     0.0000E+00

      iter #   3 total cpu time :   240.1 secs   av.it.:  11.2
      thresh= 1.000E-02 alpha_mix =  0.700 |ddv_scf|^2 =  3.718E-06
 
     Pert. #  1: Fermi energy shift (Ry) =     0.0000E+00     0.0000E+00

      iter #   4 total cpu time :   243.0 secs   av.it.:  13.2
      thresh= 1.928E-04 alpha_mix =  0.700 |ddv_scf|^2 =  6.131E-07
 
     Pert. #  1: Fermi energy shift (Ry) =     0.0000E+00     0.0000E+00

      iter #   5 total cpu time :   245.4 secs   av.it.:  12.6
      thresh= 7.830E-05 alpha_mix =  0.700 |ddv_scf|^2 =  2.673E-10
 
     Pert. #  1: Fermi energy shift (Ry) =     0.0000E+00     0.0000E+00

      iter #   6 total cpu time :   248.9 secs   av.it.:  12.4
      thresh= 1.635E-06 alpha_mix =  0.700 |ddv_scf|^2 =  7.380E-12
 
     Pert. #  1: Fermi energy shift (Ry) =     0.0000E+00     0.0000E+00

      iter #   7 total cpu time :   250.6 secs   av.it.:  12.4
      thresh= 2.717E-07 alpha_mix =  0.700 |ddv_scf|^2 =  4.320E-13
 
     Pert. #  1: Fermi energy shift (Ry) =     0.0000E+00     0.0000E+00

      iter #   8 total cpu time :   253.9 secs   av.it.:  12.0
      thresh= 6.573E-08 alpha_mix =  0.700 |ddv_scf|^2 =  4.135E-15
 
     Pert. #  1: Fermi energy shift (Ry) =     0.0000E+00     0.0000E+00

      iter #   9 total cpu time :   256.1 secs   av.it.:  12.7
      thresh= 6.431E-09 alpha_mix =  0.700 |ddv_scf|^2 =  1.660E-16
 
     Pert. #  1: Fermi energy shift (Ry) =     0.0000E+00     0.0000E+00

      iter #  10 total cpu time :   261.0 secs   av.it.:  11.5
      thresh= 1.288E-09 alpha_mix =  0.700 |ddv_scf|^2 =  4.041E-17
 
     Pert. #  1: Fermi energy shift (Ry) =     0.0000E+00     0.0000E+00

      iter #  11 total cpu time :   263.8 secs   av.it.:  12.0
      thresh= 6.357E-10 alpha_mix =  0.700 |ddv_scf|^2 =  5.002E-20
 
     Pert. #  1: Fermi energy shift (Ry) =     0.0000E+00     0.0000E+00

      iter #  12 total cpu time :   265.6 secs   av.it.:  14.2
      thresh= 2.237E-11 alpha_mix =  0.700 |ddv_scf|^2 =  1.253E-19
 
     Pert. #  1: Fermi energy shift (Ry) =     0.0000E+00     0.0000E+00

      iter #  13 total cpu time :   270.9 secs   av.it.:  11.9
      thresh= 3.540E-11 alpha_mix =  0.700 |ddv_scf|^2 =  1.076E-20
 
     Pert. #  1: Fermi energy shift (Ry) =     0.0000E+00     0.0000E+00

      iter #  14 total cpu time :   272.5 secs   av.it.:  11.8
      thresh= 1.037E-11 alpha_mix =  0.700 |ddv_scf|^2 =  2.120E-24

     End of self-consistent calculation

     Convergence has been achieved 


     Representation #   6 modes #   8   9

     Self-consistent Calculation
 
     Pert. #  1: Fermi energy shift (Ry) =    -6.8932E-26     1.3393E-41
     Pert. #  2: Fermi energy shift (Ry) =     1.7233E-26    -2.1046E-41

      iter #   1 total cpu time :   274.6 secs   av.it.:   7.8
      thresh= 1.000E-02 alpha_mix =  0.700 |ddv_scf|^2 =  1.295E-08
 
     Pert. #  1: Fermi energy shift (Ry) =     0.0000E+00    -9.7157E-44
     Pert. #  2: Fermi energy shift (Ry) =     3.2312E-27    -2.2421E-44

      iter #   2 total cpu time :   277.9 secs   av.it.:  17.3
      thresh= 1.138E-05 alpha_mix =  0.700 |ddv_scf|^2 =  1.152E-09
 
     Pert. #  1: Fermi energy shift (Ry) =     0.0000E+00    -7.4736E-45
     Pert. #  2: Fermi energy shift (Ry) =     2.1541E-27     2.9894E-44

      iter #   3 total cpu time :   281.4 secs   av.it.:  16.9
      thresh= 3.394E-06 alpha_mix =  0.700 |ddv_scf|^2 =  5.407E-11
 
     Pert. #  1: Fermi energy shift (Ry) =     0.0000E+00     3.7368E-45
     Pert. #  2: Fermi energy shift (Ry) =    -2.1541E-27    -3.7368E-45

      iter #   4 total cpu time :   293.5 secs   av.it.:  15.4
      thresh= 7.353E-07 alpha_mix =  0.700 |ddv_scf|^2 =  1.480E-14
 
     Pert. #  1: Fermi energy shift (Ry) =     0.0000E+00    -1.4947E-44
     Pert. #  2: Fermi energy shift (Ry) =     0.0000E+00    -1.4947E-44

      iter #   5 total cpu time :   298.6 secs   av.it.:  16.5
      thresh= 1.216E-08 alpha_mix =  0.700 |ddv_scf|^2 =  6.501E-16
 
     Pert. #  1: Fermi energy shift (Ry) =     0.0000E+00    -1.4947E-44
     Pert. #  2: Fermi energy shift (Ry) =    -2.1541E-27    -1.4947E-44

      iter #   6 total cpu time :   304.3 secs   av.it.:  16.0
      thresh= 2.550E-09 alpha_mix =  0.700 |ddv_scf|^2 =  1.811E-18
 
     Pert. #  1: Fermi energy shift (Ry) =     0.0000E+00    -1.4947E-44
     Pert. #  2: Fermi energy shift (Ry) =    -2.1541E-27    -1.4947E-44

      iter #   7 total cpu time :   308.9 secs   av.it.:  17.4
      thresh= 1.346E-10 alpha_mix =  0.700 |ddv_scf|^2 =  7.504E-20
 
     Pert. #  1: Fermi energy shift (Ry) =     0.0000E+00    -1.4947E-44
     Pert. #  2: Fermi energy shift (Ry) =    -4.3082E-27    -1.4947E-44

      iter #   8 total cpu time :   314.6 secs   av.it.:  17.6
      thresh= 2.739E-11 alpha_mix =  0.700 |ddv_scf|^2 =  2.941E-21
 
     Pert. #  1: Fermi energy shift (Ry) =     0.0000E+00    -1.4947E-44
     Pert. #  2: Fermi energy shift (Ry) =    -4.3082E-27    -1.4947E-44

      iter #   9 total cpu time :   322.3 secs   av.it.:  17.4
      thresh= 5.423E-12 alpha_mix =  0.700 |ddv_scf|^2 =  1.486E-22

     End of self-consistent calculation

     Convergence has been achieved 
 
     Number of q in the star =    1
     List of q in the star:
          1   0.000000000   0.000000000   0.000000000

     Diagonalizing the dynamical matrix

     q = (    0.000000000   0.000000000   0.000000000 ) 

 **************************************************************************
     freq (    1) =      -0.667612 [THz] =     -22.269145 [cm-1]
     freq (    2) =      -0.667612 [THz] =     -22.269145 [cm-1]
     freq (    3) =       0.962108 [THz] =      32.092466 [cm-1]
     freq (    4) =       6.823788 [THz] =     227.617073 [cm-1]
     freq (    5) =       6.823788 [THz] =     227.617073 [cm-1]
     freq (    6) =       8.696005 [THz] =     290.067494 [cm-1]
     freq (    7) =       8.696005 [THz] =     290.067494 [cm-1]
     freq (    8) =      11.214795 [THz] =     374.085309 [cm-1]
     freq (    9) =      12.003040 [THz] =     400.378319 [cm-1]
 **************************************************************************

     Mode symmetry, D_3h (-62m) point group:

     freq (   1-   2) =        -22.3  [cm-1]   --> E'              I+R
     freq (   3-   3) =         32.1  [cm-1]   --> A''2            I  
     freq (   4-   5) =        227.6  [cm-1]   --> E''             R  
     freq (   6-   7) =        290.1  [cm-1]   --> E'              I+R
     freq (   8-   8) =        374.1  [cm-1]   --> A''2            I  
     freq (   9-   9) =        400.4  [cm-1]   --> A'_1            R  

     Calculation of q =    0.0000000   0.0962250   0.0000000

     Subspace diagonalization in iterative solution of the eigenvalue problem:
     a serial algorithm will be used

 
     Parallelization info
     --------------------
     sticks:   dense  smooth     PW     G-vecs:    dense   smooth      PW
     Min          60      31      9                 7329     2593     433
     Max          62      32     10                 7342     2605     452
     Sum        1099     559    163               132031    46753    7877
 
     Using Slab Decomposition
 

     Title: 
     TaS2                                                                       


     bravais-lattice index     =            4
     lattice parameter (alat)  =       6.3117  a.u.
     unit-cell volume          =     977.9382 (a.u.)^3
     number of atoms/cell      =            3
     number of atomic types    =            2
     number of electrons       =        17.00
     number of Kohn-Sham states=           13
     kinetic-energy cutoff     =      50.0000  Ry
     charge density cutoff     =     400.0000  Ry
     Exchange-correlation= PBE
                           (   1   4   3   4   0   0   0)

     celldm(1)=   6.311685  celldm(2)=   0.000000  celldm(3)=   4.491018
     celldm(4)=   0.000000  celldm(5)=   0.000000  celldm(6)=   0.000000

     crystal axes: (cart. coord. in units of alat)
               a(1) = (   1.000000   0.000000   0.000000 )  
               a(2) = (  -0.500000   0.866025   0.000000 )  
               a(3) = (   0.000000   0.000000   4.491018 )  

     reciprocal axes: (cart. coord. in units 2 pi/alat)
               b(1) = (  1.000000  0.577350  0.000000 )  
               b(2) = (  0.000000  1.154701  0.000000 )  
               b(3) = (  0.000000  0.000000  0.222667 )  


     PseudoPot. # 1 for Ta read from file:
     /fastscratch/tsievers/TaS2_24_ph_benchmark_images//pseudos/Ta.pbe-hgh.UPF
     MD5 check sum: 129c51a9a4223465c43ca8d238d17e53
     Pseudo is Norm-conserving, Zval =  5.0
     Generated in analytical, separable form
     Using radial grid of 1273 points,  6 beta functions with: 
                l(1) =   0
                l(2) =   0
                l(3) =   1
                l(4) =   1
                l(5) =   2
                l(6) =   2

     PseudoPot. # 2 for S  read from file:
     /fastscratch/tsievers/TaS2_24_ph_benchmark_images//pseudos/S.pbe-hgh.UPF
     MD5 check sum: 3a21e384b95a7cc84d045d3bcc0c4ba8
     Pseudo is Norm-conserving, Zval =  6.0
     Generated in analytical, separable form
     Using radial grid of 1151 points,  3 beta functions with: 
                l(1) =   0
                l(2) =   0
                l(3) =   1

     atomic species   valence    mass     pseudopotential
        Ta             5.00   180.95000     Ta( 1.00)
        S              6.00    32.06000     S ( 1.00)

     12 Sym. Ops. (no inversion) found



   Cartesian axes

     site n.     atom                  positions (alat units)
         1           S   tau(   1) = (  -0.0000000   0.5773503   0.4679048  )
         2           Ta  tau(   2) = (   0.0000000   0.0000000   0.0000000  )
         3           S   tau(   3) = (  -0.0000000   0.5773503  -0.4679048  )

     number of k points=   600  Marzari-Vanderbilt smearing, width (Ry)=  0.0060

     Number of k-points >= 100: set verbosity='high' to print them.

     Dense  grid:   132031 G-vectors     FFT dimensions: (  45,  45, 192)

     Smooth grid:    46753 G-vectors     FFT dimensions: (  30,  30, 128)

     Estimated max dynamical RAM per process >       6.81 MB

     Estimated total dynamical RAM >     490.66 MB
 ----2D----2D----2D----2D----2D----2D----2D----2D----2D----2D----2D----2D
  The code is running with the 2D cutoff
  Please refer to:
  Sohier, T., Calandra, M., & Mauri, F. (2017), 
  Density functional perturbation theory for gated two-dimensional heterostructu
 res:
  Theoretical developments and application to flexural phonons in graphene.
  Physical Review B, 96(7), 75448. https://doi.org/10.1103/PhysRevB.96.075448
 ----2D----2D----2D----2D----2D----2D----2D----2D----2D----2D----2D----2D

     The potential is recalculated from file :
     /fastscratch/tsievers/QE_TMP_DIR/_ph0/TaS2_24_ph_bench_nimages_2_n_procs_144_0.q_2/TaS2_24_ph_bench_nimages_2_n_procs_144_0.save/charge-density

     Starting wfcs are   27 atomic wfcs

     Band Structure Calculation
     Davidson diagonalization with overlap

     ethr =  5.88E-11,  avg # of iterations = 20.5

     total cpu time spent up to now is       15.1 secs

     End of band structure calculation

     Number of k-points >= 100: set verbosity='high' to print the bands.

     the Fermi energy is    -5.8804 ev

     Writing config to output data dir /fastscratch/tsievers/QE_TMP_DIR/_ph0/TaS2_24_ph_bench_nimages_2_n_procs_144_0.q_2/TaS2_24_ph_bench_nimages_2_n_procs_144_0.save/

     TaS2                                                                       

     bravais-lattice index     =            4
     lattice parameter (alat)  =       6.3117  a.u.
     unit-cell volume          =     977.9382 (a.u.)^3
     number of atoms/cell      =            3
     number of atomic types    =            2
     kinetic-energy cut-off    =      50.0000  Ry
     charge density cut-off    =     400.0000  Ry
     convergence threshold     =      1.0E-21
     beta                      =       0.7000
     number of iterations used =            4
     Exchange-correlation= PBE
                           (   1   4   3   4   0   0   0)


     celldm(1)=    6.31169  celldm(2)=    0.00000  celldm(3)=    4.49102
     celldm(4)=    0.00000  celldm(5)=    0.00000  celldm(6)=    0.00000

     crystal axes: (cart. coord. in units of alat)
               a(1) = (  1.0000  0.0000  0.0000 )  
               a(2) = ( -0.5000  0.8660  0.0000 )  
               a(3) = (  0.0000  0.0000  4.4910 )  

     reciprocal axes: (cart. coord. in units 2 pi/alat)
               b(1) = (  1.0000  0.5774  0.0000 )  
               b(2) = (  0.0000  1.1547  0.0000 )  
               b(3) = (  0.0000  0.0000  0.2227 )  


     Atoms inside the unit cell: 

     Cartesian axes

     site n.  atom      mass           positions (alat units)
        1     S   32.0600   tau(    1) = (   -0.00000    0.57735    0.46790  )
        2     Ta 180.9500   tau(    2) = (    0.00000    0.00000    0.00000  )
        3     S   32.0600   tau(    3) = (   -0.00000    0.57735   -0.46790  )

     Computing dynamical matrix for 
                    q = (   0.0000000   0.0962250   0.0000000 )
 
      4 Sym.Ops. (no q -> -q+G )


     G cutoff =  403.6370  (   7330 G-vectors)     FFT grid: ( 45, 45,192)
     G cutoff =  201.8185  (   2599 G-vectors)  smooth grid: ( 30, 30,128)

     number of k points=   600  Marzari-Vanderbilt smearing, width (Ry)=  0.0060

     PseudoPot. # 1 for Ta read from file:
     /fastscratch/tsievers/TaS2_24_ph_benchmark_images//pseudos/Ta.pbe-hgh.UPF
     MD5 check sum: 129c51a9a4223465c43ca8d238d17e53
     Pseudo is Norm-conserving, Zval =  5.0
     Generated in analytical, separable form
     Using radial grid of 1273 points,  6 beta functions with: 
                l(1) =   0
                l(2) =   0
                l(3) =   1
                l(4) =   1
                l(5) =   2
                l(6) =   2

     PseudoPot. # 2 for S  read from file:
     /fastscratch/tsievers/TaS2_24_ph_benchmark_images//pseudos/S.pbe-hgh.UPF
     MD5 check sum: 3a21e384b95a7cc84d045d3bcc0c4ba8
     Pseudo is Norm-conserving, Zval =  6.0
     Generated in analytical, separable form
     Using radial grid of 1151 points,  3 beta functions with: 
                l(1) =   0
                l(2) =   0
                l(3) =   1

     Mode symmetry, C_2v (mm2)  point group:


     Atomic displacements:
     There are    9 irreducible representations

     Representation     1      1 modes -  To be done

     Representation     2      1 modes -  To be done

     Representation     3      1 modes -  To be done

     Representation     4      1 modes -  To be done

     Representation     5      1 modes -  To be done

     Representation     6      1 modes -  To be done

     Representation     7      1 modes -  To be done

     Representation     8      1 modes -  To be done

     Representation     9      1 modes -  To be done



     Alpha used in Ewald sum =   2.8000
     PHONON       :   3m15.77s CPU   5m48.38s WALL



     Representation #   1 mode #   1

     Self-consistent Calculation

      iter #   1 total cpu time :   354.4 secs   av.it.:   9.0
      thresh= 1.000E-02 alpha_mix =  0.700 |ddv_scf|^2 =  1.837E-02

      iter #   2 total cpu time :   363.9 secs   av.it.:  14.5
      thresh= 1.000E-02 alpha_mix =  0.700 |ddv_scf|^2 =  1.005E+02

      iter #   3 total cpu time :   369.7 secs   av.it.:  14.6
      thresh= 1.000E-02 alpha_mix =  0.700 |ddv_scf|^2 =  5.439E-03

      iter #   4 total cpu time :   373.7 secs   av.it.:  10.1
      thresh= 7.375E-03 alpha_mix =  0.700 |ddv_scf|^2 =  3.002E-05

      iter #   5 total cpu time :   380.7 secs   av.it.:  13.7
      thresh= 5.479E-04 alpha_mix =  0.700 |ddv_scf|^2 =  3.065E-06

      iter #   6 total cpu time :   395.0 secs   av.it.:  12.8
      thresh= 1.751E-04 alpha_mix =  0.700 |ddv_scf|^2 =  9.438E-04

      iter #   7 total cpu time :   398.1 secs   av.it.:   8.5
      thresh= 3.072E-03 alpha_mix =  0.700 |ddv_scf|^2 =  1.363E-06

      iter #   8 total cpu time :   402.4 secs   av.it.:  10.9
      thresh= 1.167E-04 alpha_mix =  0.700 |ddv_scf|^2 =  1.759E-07

      iter #   9 total cpu time :   407.2 secs   av.it.:  10.3
      thresh= 4.194E-05 alpha_mix =  0.700 |ddv_scf|^2 =  1.188E-09

      iter #  10 total cpu time :   414.1 secs   av.it.:  12.2
      thresh= 3.447E-06 alpha_mix =  0.700 |ddv_scf|^2 =  7.244E-09

      iter #  11 total cpu time :   424.1 secs   av.it.:   9.2
      thresh= 8.511E-06 alpha_mix =  0.700 |ddv_scf|^2 =  1.897E-10

      iter #  12 total cpu time :   431.7 secs   av.it.:  10.0
      thresh= 1.377E-06 alpha_mix =  0.700 |ddv_scf|^2 =  7.242E-11

      iter #  13 total cpu time :   436.7 secs   av.it.:  10.2
      thresh= 8.510E-07 alpha_mix =  0.700 |ddv_scf|^2 =  3.796E-11

      iter #  14 total cpu time :   442.5 secs   av.it.:  10.3
      thresh= 6.162E-07 alpha_mix =  0.700 |ddv_scf|^2 =  7.615E-12

      iter #  15 total cpu time :   447.0 secs   av.it.:   9.1
      thresh= 2.760E-07 alpha_mix =  0.700 |ddv_scf|^2 =  1.085E-13

      iter #  16 total cpu time :   462.6 secs   av.it.:   9.5
      thresh= 3.295E-08 alpha_mix =  0.700 |ddv_scf|^2 =  7.155E-15

      iter #  17 total cpu time :   468.2 secs   av.it.:  10.3
      thresh= 8.459E-09 alpha_mix =  0.700 |ddv_scf|^2 =  2.280E-15

      iter #  18 total cpu time :   472.0 secs   av.it.:   8.9
      thresh= 4.775E-09 alpha_mix =  0.700 |ddv_scf|^2 =  3.914E-16

      iter #  19 total cpu time :   480.3 secs   av.it.:   9.9
      thresh= 1.978E-09 alpha_mix =  0.700 |ddv_scf|^2 =  1.064E-17

      iter #  20 total cpu time :   496.9 secs   av.it.:  11.6
      thresh= 3.261E-10 alpha_mix =  0.700 |ddv_scf|^2 =  3.297E-17

      iter #  21 total cpu time :   502.5 secs   av.it.:   9.2
      thresh= 5.742E-10 alpha_mix =  0.700 |ddv_scf|^2 =  2.723E-19

      iter #  22 total cpu time :   506.3 secs   av.it.:  11.3
      thresh= 5.219E-11 alpha_mix =  0.700 |ddv_scf|^2 =  2.675E-19

      iter #  23 total cpu time :   522.5 secs   av.it.:   8.1
      thresh= 5.173E-11 alpha_mix =  0.700 |ddv_scf|^2 =  4.951E-20

      iter #  24 total cpu time :   541.1 secs   av.it.:   9.4
      thresh= 2.225E-11 alpha_mix =  0.700 |ddv_scf|^2 =  8.534E-21

      iter #  25 total cpu time :   547.5 secs   av.it.:   9.5
      thresh= 9.238E-12 alpha_mix =  0.700 |ddv_scf|^2 =  2.816E-22

     End of self-consistent calculation

     Convergence has been achieved 


     Representation #   2 mode #   2

     Self-consistent Calculation

      iter #   1 total cpu time :   561.6 secs   av.it.:   9.2
      thresh= 1.000E-02 alpha_mix =  0.700 |ddv_scf|^2 =  9.381E-03

      iter #   2 total cpu time :   575.0 secs   av.it.:  14.1
      thresh= 9.686E-03 alpha_mix =  0.700 |ddv_scf|^2 =  5.352E+01

      iter #   3 total cpu time :   579.4 secs   av.it.:  14.0
      thresh= 1.000E-02 alpha_mix =  0.700 |ddv_scf|^2 =  9.217E-03

      iter #   4 total cpu time :   592.1 secs   av.it.:  11.5
      thresh= 9.601E-03 alpha_mix =  0.700 |ddv_scf|^2 =  8.493E-02

      iter #   5 total cpu time :   601.0 secs   av.it.:  11.1
      thresh= 1.000E-02 alpha_mix =  0.700 |ddv_scf|^2 =  1.246E-03

      iter #   6 total cpu time :   607.9 secs   av.it.:  10.8
      thresh= 3.529E-03 alpha_mix =  0.700 |ddv_scf|^2 =  2.732E-02

      iter #   7 total cpu time :   611.6 secs   av.it.:   8.3
      thresh= 1.000E-02 alpha_mix =  0.700 |ddv_scf|^2 =  1.844E-05

      iter #   8 total cpu time :   619.9 secs   av.it.:  11.3
      thresh= 4.294E-04 alpha_mix =  0.700 |ddv_scf|^2 =  2.388E-05

      iter #   9 total cpu time :   625.9 secs   av.it.:   9.8
      thresh= 4.886E-04 alpha_mix =  0.700 |ddv_scf|^2 =  8.968E-07

      iter #  10 total cpu time :   629.1 secs   av.it.:   9.0
      thresh= 9.470E-05 alpha_mix =  0.700 |ddv_scf|^2 =  8.851E-08

      iter #  11 total cpu time :   639.9 secs   av.it.:   9.7
      thresh= 2.975E-05 alpha_mix =  0.700 |ddv_scf|^2 =  1.618E-07

      iter #  12 total cpu time :   644.6 secs   av.it.:   9.3
      thresh= 4.022E-05 alpha_mix =  0.700 |ddv_scf|^2 =  9.804E-10

      iter #  13 total cpu time :   649.3 secs   av.it.:  10.1
      thresh= 3.131E-06 alpha_mix =  0.700 |ddv_scf|^2 =  5.100E-10

      iter #  14 total cpu time :   656.6 secs   av.it.:   9.9
      thresh= 2.258E-06 alpha_mix =  0.700 |ddv_scf|^2 =  4.922E-11

      iter #  15 total cpu time :   662.7 secs   av.it.:   9.4
      thresh= 7.016E-07 alpha_mix =  0.700 |ddv_scf|^2 =  7.942E-13

      iter #  16 total cpu time :   667.9 secs   av.it.:   9.9
      thresh= 8.912E-08 alpha_mix =  0.700 |ddv_scf|^2 =  3.036E-13

      iter #  17 total cpu time :   678.0 secs   av.it.:   9.1
      thresh= 5.510E-08 alpha_mix =  0.700 |ddv_scf|^2 =  1.219E-14

      iter #  18 total cpu time :   686.5 secs   av.it.:  10.1
      thresh= 1.104E-08 alpha_mix =  0.700 |ddv_scf|^2 =  1.747E-15

      iter #  19 total cpu time :   697.1 secs   av.it.:   9.5
      thresh= 4.179E-09 alpha_mix =  0.700 |ddv_scf|^2 =  4.112E-17

      iter #  20 total cpu time :   701.6 secs   av.it.:  10.0
      thresh= 6.412E-10 alpha_mix =  0.700 |ddv_scf|^2 =  2.810E-17

      iter #  21 total cpu time :   706.1 secs   av.it.:   9.6
      thresh= 5.301E-10 alpha_mix =  0.700 |ddv_scf|^2 =  7.225E-19

      iter #  22 total cpu time :   713.5 secs   av.it.:  10.1
      thresh= 8.500E-11 alpha_mix =  0.700 |ddv_scf|^2 =  9.466E-20

      iter #  23 total cpu time :   718.4 secs   av.it.:   9.4
      thresh= 3.077E-11 alpha_mix =  0.700 |ddv_scf|^2 =  6.957E-21

      iter #  24 total cpu time :   737.6 secs   av.it.:   8.5
      thresh= 8.341E-12 alpha_mix =  0.700 |ddv_scf|^2 =  2.601E-21

      iter #  25 total cpu time :   742.2 secs   av.it.:   9.7
      thresh= 5.100E-12 alpha_mix =  0.700 |ddv_scf|^2 =  8.380E-23

     End of self-consistent calculation

     Convergence has been achieved 


     Representation #   3 mode #   3

     Self-consistent Calculation

      iter #   1 total cpu time :   751.2 secs   av.it.:   8.0
      thresh= 1.000E-02 alpha_mix =  0.700 |ddv_scf|^2 =  7.683E-03

      iter #   2 total cpu time :   756.0 secs   av.it.:  14.0
      thresh= 8.765E-03 alpha_mix =  0.700 |ddv_scf|^2 =  4.203E+01

      iter #   3 total cpu time :   764.8 secs   av.it.:  13.8
      thresh= 1.000E-02 alpha_mix =  0.700 |ddv_scf|^2 =  2.183E-03

      iter #   4 total cpu time :   773.8 secs   av.it.:   7.5
      thresh= 4.672E-03 alpha_mix =  0.700 |ddv_scf|^2 =  1.386E-06

      iter #   5 total cpu time :   781.8 secs   av.it.:  11.3
      thresh= 1.177E-04 alpha_mix =  0.700 |ddv_scf|^2 =  3.585E-05

      iter #   6 total cpu time :   785.8 secs   av.it.:   6.5
      thresh= 5.988E-04 alpha_mix =  0.700 |ddv_scf|^2 =  2.231E-06

      iter #   7 total cpu time :   789.8 secs   av.it.:  10.0
      thresh= 1.494E-04 alpha_mix =  0.700 |ddv_scf|^2 =  1.965E-06

      iter #   8 total cpu time :   794.0 secs   av.it.:   9.5
      thresh= 1.402E-04 alpha_mix =  0.700 |ddv_scf|^2 =  3.035E-07

      iter #   9 total cpu time :   803.0 secs   av.it.:  10.2
      thresh= 5.509E-05 alpha_mix =  0.700 |ddv_scf|^2 =  1.249E-07

      iter #  10 total cpu time :   809.4 secs   av.it.:   9.3
      thresh= 3.534E-05 alpha_mix =  0.700 |ddv_scf|^2 =  2.731E-09

      iter #  11 total cpu time :   814.0 secs   av.it.:   9.2
      thresh= 5.226E-06 alpha_mix =  0.700 |ddv_scf|^2 =  2.689E-12

      iter #  12 total cpu time :   818.5 secs   av.it.:  11.0
      thresh= 1.640E-07 alpha_mix =  0.700 |ddv_scf|^2 =  2.069E-12

      iter #  13 total cpu time :   823.3 secs   av.it.:  10.0
      thresh= 1.438E-07 alpha_mix =  0.700 |ddv_scf|^2 =  1.847E-13

      iter #  14 total cpu time :   829.4 secs   av.it.:   9.6
      thresh= 4.297E-08 alpha_mix =  0.700 |ddv_scf|^2 =  1.965E-13

      iter #  15 total cpu time :   833.3 secs   av.it.:   9.6
      thresh= 4.432E-08 alpha_mix =  0.700 |ddv_scf|^2 =  1.178E-13

      iter #  16 total cpu time :   839.8 secs   av.it.:   9.0
      thresh= 3.432E-08 alpha_mix =  0.700 |ddv_scf|^2 =  1.869E-14

      iter #  17 total cpu time :   843.9 secs   av.it.:   9.6
      thresh= 1.367E-08 alpha_mix =  0.700 |ddv_scf|^2 =  8.663E-18

      iter #  18 total cpu time :   855.4 secs   av.it.:  12.5
      thresh= 2.943E-10 alpha_mix =  0.700 |ddv_scf|^2 =  7.403E-17

      iter #  19 total cpu time :   862.1 secs   av.it.:   9.0
      thresh= 8.604E-10 alpha_mix =  0.700 |ddv_scf|^2 =  8.225E-18

      iter #  20 total cpu time :   870.4 secs   av.it.:   9.9
      thresh= 2.868E-10 alpha_mix =  0.700 |ddv_scf|^2 =  1.499E-18

      iter #  21 total cpu time :   876.6 secs   av.it.:  10.1
      thresh= 1.224E-10 alpha_mix =  0.700 |ddv_scf|^2 =  1.260E-19

      iter #  22 total cpu time :   880.6 secs   av.it.:   9.9
      thresh= 3.549E-11 alpha_mix =  0.700 |ddv_scf|^2 =  5.755E-20

      iter #  23 total cpu time :   887.3 secs   av.it.:   9.0
      thresh= 2.399E-11 alpha_mix =  0.700 |ddv_scf|^2 =  1.690E-20

      iter #  24 total cpu time :   900.9 secs   av.it.:   9.4
      thresh= 1.300E-11 alpha_mix =  0.700 |ddv_scf|^2 =  3.426E-22

     End of self-consistent calculation

     Convergence has been achieved 


     Representation #   4 mode #   4

     Self-consistent Calculation

      iter #   1 total cpu time :   909.8 secs   av.it.:   7.9
      thresh= 1.000E-02 alpha_mix =  0.700 |ddv_scf|^2 =  5.345E-08

      iter #   2 total cpu time :   915.0 secs   av.it.:  16.3
      thresh= 2.312E-05 alpha_mix =  0.700 |ddv_scf|^2 =  4.861E-09

      iter #   3 total cpu time :   924.6 secs   av.it.:  16.1
      thresh= 6.972E-06 alpha_mix =  0.700 |ddv_scf|^2 =  2.193E-10

      iter #   4 total cpu time :   940.5 secs   av.it.:  14.4
      thresh= 1.481E-06 alpha_mix =  0.700 |ddv_scf|^2 =  6.066E-14

      iter #   5 total cpu time :   947.8 secs   av.it.:  15.7
      thresh= 2.463E-08 alpha_mix =  0.700 |ddv_scf|^2 =  2.618E-15

      iter #   6 total cpu time :   956.8 secs   av.it.:  15.1
      thresh= 5.116E-09 alpha_mix =  0.700 |ddv_scf|^2 =  8.170E-18

      iter #   7 total cpu time :   963.7 secs   av.it.:  16.3
      thresh= 2.858E-10 alpha_mix =  0.700 |ddv_scf|^2 =  3.326E-19

      iter #   8 total cpu time :   982.8 secs   av.it.:  16.7
      thresh= 5.767E-11 alpha_mix =  0.700 |ddv_scf|^2 =  1.267E-20

      iter #   9 total cpu time :   988.1 secs   av.it.:  16.4
      thresh= 1.126E-11 alpha_mix =  0.700 |ddv_scf|^2 =  6.703E-22

     End of self-consistent calculation

     Convergence has been achieved 


     Representation #   5 mode #   5

     Self-consistent Calculation

      iter #   1 total cpu time :   992.3 secs   av.it.:   7.0
      thresh= 1.000E-02 alpha_mix =  0.700 |ddv_scf|^2 =  7.560E-09

      iter #   2 total cpu time :   998.9 secs   av.it.:  16.4
      thresh= 8.695E-06 alpha_mix =  0.700 |ddv_scf|^2 =  5.459E-10

      iter #   3 total cpu time :  1020.5 secs   av.it.:  15.9
      thresh= 2.336E-06 alpha_mix =  0.700 |ddv_scf|^2 =  5.850E-11

      iter #   4 total cpu time :  1035.1 secs   av.it.:  15.8
      thresh= 7.649E-07 alpha_mix =  0.700 |ddv_scf|^2 =  9.546E-13

      iter #   5 total cpu time :  1045.9 secs   av.it.:  16.2
      thresh= 9.770E-08 alpha_mix =  0.700 |ddv_scf|^2 =  2.140E-14

      iter #   6 total cpu time :  1058.0 secs   av.it.:  16.4
      thresh= 1.463E-08 alpha_mix =  0.700 |ddv_scf|^2 =  9.846E-17

      iter #   7 total cpu time :  1075.0 secs   av.it.:  16.5
      thresh= 9.923E-10 alpha_mix =  0.700 |ddv_scf|^2 =  2.478E-18

      iter #   8 total cpu time :  1081.5 secs   av.it.:  15.6
      thresh= 1.574E-10 alpha_mix =  0.700 |ddv_scf|^2 =  3.268E-20

      iter #   9 total cpu time :  1090.1 secs   av.it.:  15.7
      thresh= 1.808E-11 alpha_mix =  0.700 |ddv_scf|^2 =  3.635E-22

     End of self-consistent calculation

     Convergence has been achieved 


     Representation #   6 mode #   6

     Self-consistent Calculation

      iter #   1 total cpu time :  1097.3 secs   av.it.:   7.9
      thresh= 1.000E-02 alpha_mix =  0.700 |ddv_scf|^2 =  6.386E-08

      iter #   2 total cpu time :  1114.8 secs   av.it.:  16.5
      thresh= 2.527E-05 alpha_mix =  0.700 |ddv_scf|^2 =  7.047E-09

      iter #   3 total cpu time :  1122.8 secs   av.it.:  16.2
      thresh= 8.395E-06 alpha_mix =  0.700 |ddv_scf|^2 =  2.385E-10

      iter #   4 total cpu time :  1140.4 secs   av.it.:  14.5
      thresh= 1.544E-06 alpha_mix =  0.700 |ddv_scf|^2 =  9.804E-14

      iter #   5 total cpu time :  1149.5 secs   av.it.:  15.7
      thresh= 3.131E-08 alpha_mix =  0.700 |ddv_scf|^2 =  8.414E-15

      iter #   6 total cpu time :  1162.9 secs   av.it.:  16.2
      thresh= 9.173E-09 alpha_mix =  0.700 |ddv_scf|^2 =  1.014E-16

      iter #   7 total cpu time :  1167.8 secs   av.it.:  16.4
      thresh= 1.007E-09 alpha_mix =  0.700 |ddv_scf|^2 =  4.343E-18

      iter #   8 total cpu time :  1178.4 secs   av.it.:  16.5
      thresh= 2.084E-10 alpha_mix =  0.700 |ddv_scf|^2 =  3.713E-20

      iter #   9 total cpu time :  1184.0 secs   av.it.:  16.7
      thresh= 1.927E-11 alpha_mix =  0.700 |ddv_scf|^2 =  2.761E-21

      iter #  10 total cpu time :  1193.5 secs   av.it.:  16.4
      thresh= 5.255E-12 alpha_mix =  0.700 |ddv_scf|^2 =  7.089E-23

     End of self-consistent calculation

     Convergence has been achieved 


     Representation #   7 mode #   7

     Self-consistent Calculation

      iter #   1 total cpu time :  1198.2 secs   av.it.:   8.3
      thresh= 1.000E-02 alpha_mix =  0.700 |ddv_scf|^2 =  7.082E-06

      iter #   2 total cpu time :  1203.5 secs   av.it.:  15.2
      thresh= 2.661E-04 alpha_mix =  0.700 |ddv_scf|^2 =  1.297E-04

      iter #   3 total cpu time :  1209.3 secs   av.it.:  12.6
      thresh= 1.139E-03 alpha_mix =  0.700 |ddv_scf|^2 =  7.079E-08

      iter #   4 total cpu time :  1220.0 secs   av.it.:  14.6
      thresh= 2.661E-05 alpha_mix =  0.700 |ddv_scf|^2 =  5.295E-09

      iter #   5 total cpu time :  1231.0 secs   av.it.:  13.9
      thresh= 7.277E-06 alpha_mix =  0.700 |ddv_scf|^2 =  9.481E-11

      iter #   6 total cpu time :  1240.6 secs   av.it.:  14.4
      thresh= 9.737E-07 alpha_mix =  0.700 |ddv_scf|^2 =  3.300E-12

      iter #   7 total cpu time :  1249.9 secs   av.it.:  15.2
      thresh= 1.817E-07 alpha_mix =  0.700 |ddv_scf|^2 =  7.359E-12

      iter #   8 total cpu time :  1256.6 secs   av.it.:  13.6
      thresh= 2.713E-07 alpha_mix =  0.700 |ddv_scf|^2 =  1.345E-12

      iter #   9 total cpu time :  1267.7 secs   av.it.:  13.8
      thresh= 1.160E-07 alpha_mix =  0.700 |ddv_scf|^2 =  3.045E-14

      iter #  10 total cpu time :  1274.0 secs   av.it.:  14.9
      thresh= 1.745E-08 alpha_mix =  0.700 |ddv_scf|^2 =  1.916E-14

      iter #  11 total cpu time :  1282.5 secs   av.it.:  13.2
      thresh= 1.384E-08 alpha_mix =  0.700 |ddv_scf|^2 =  1.530E-16

      iter #  12 total cpu time :  1293.1 secs   av.it.:  15.4
      thresh= 1.237E-09 alpha_mix =  0.700 |ddv_scf|^2 =  5.088E-17

      iter #  13 total cpu time :  1302.0 secs   av.it.:  14.2
      thresh= 7.133E-10 alpha_mix =  0.700 |ddv_scf|^2 =  8.991E-19

      iter #  14 total cpu time :  1309.5 secs   av.it.:  14.5
      thresh= 9.482E-11 alpha_mix =  0.700 |ddv_scf|^2 =  2.416E-20

      iter #  15 total cpu time :  1314.4 secs   av.it.:  14.7
      thresh= 1.554E-11 alpha_mix =  0.700 |ddv_scf|^2 =  2.675E-21

      iter #  16 total cpu time :  1323.4 secs   av.it.:  14.1
      thresh= 5.172E-12 alpha_mix =  0.700 |ddv_scf|^2 =  9.057E-23

     End of self-consistent calculation

     Convergence has been achieved 


     Representation #   8 mode #   8

     Self-consistent Calculation

      iter #   1 total cpu time :  1330.9 secs   av.it.:   8.3
      thresh= 1.000E-02 alpha_mix =  0.700 |ddv_scf|^2 =  2.242E-05

      iter #   2 total cpu time :  1336.7 secs   av.it.:  15.2
      thresh= 4.735E-04 alpha_mix =  0.700 |ddv_scf|^2 =  4.432E-04

      iter #   3 total cpu time :  1342.4 secs   av.it.:  12.5
      thresh= 2.105E-03 alpha_mix =  0.700 |ddv_scf|^2 =  7.343E-09

      iter #   4 total cpu time :  1352.3 secs   av.it.:  15.8
      thresh= 8.569E-06 alpha_mix =  0.700 |ddv_scf|^2 =  7.415E-09

      iter #   5 total cpu time :  1360.4 secs   av.it.:  13.9
      thresh= 8.611E-06 alpha_mix =  0.700 |ddv_scf|^2 =  2.244E-10

      iter #   6 total cpu time :  1366.4 secs   av.it.:  13.7
      thresh= 1.498E-06 alpha_mix =  0.700 |ddv_scf|^2 =  4.016E-11

      iter #   7 total cpu time :  1371.7 secs   av.it.:  12.5
      thresh= 6.337E-07 alpha_mix =  0.700 |ddv_scf|^2 =  1.875E-11

      iter #   8 total cpu time :  1379.5 secs   av.it.:  13.2
      thresh= 4.330E-07 alpha_mix =  0.700 |ddv_scf|^2 =  2.237E-14

      iter #   9 total cpu time :  1390.0 secs   av.it.:  15.2
      thresh= 1.496E-08 alpha_mix =  0.700 |ddv_scf|^2 =  1.661E-15

      iter #  10 total cpu time :  1399.2 secs   av.it.:  15.2
      thresh= 4.076E-09 alpha_mix =  0.700 |ddv_scf|^2 =  3.421E-16

      iter #  11 total cpu time :  1404.2 secs   av.it.:  14.4
      thresh= 1.849E-09 alpha_mix =  0.700 |ddv_scf|^2 =  1.445E-17

      iter #  12 total cpu time :  1411.6 secs   av.it.:  13.7
      thresh= 3.801E-10 alpha_mix =  0.700 |ddv_scf|^2 =  4.275E-19

      iter #  13 total cpu time :  1417.5 secs   av.it.:  14.4
      thresh= 6.538E-11 alpha_mix =  0.700 |ddv_scf|^2 =  4.031E-19

      iter #  14 total cpu time :  1422.3 secs   av.it.:  13.4
      thresh= 6.349E-11 alpha_mix =  0.700 |ddv_scf|^2 =  5.420E-20

      iter #  15 total cpu time :  1429.6 secs   av.it.:  13.9
      thresh= 2.328E-11 alpha_mix =  0.700 |ddv_scf|^2 =  1.061E-21

      iter #  16 total cpu time :  1438.3 secs   av.it.:  14.3
      thresh= 3.258E-12 alpha_mix =  0.700 |ddv_scf|^2 =  6.357E-23

     End of self-consistent calculation

     Convergence has been achieved 


     Representation #   9 mode #   9

     Self-consistent Calculation

      iter #   1 total cpu time :  1443.5 secs   av.it.:   8.7
      thresh= 1.000E-02 alpha_mix =  0.700 |ddv_scf|^2 =  3.001E-05

      iter #   2 total cpu time :  1451.7 secs   av.it.:  15.1
      thresh= 5.478E-04 alpha_mix =  0.700 |ddv_scf|^2 =  5.185E-04

      iter #   3 total cpu time :  1455.9 secs   av.it.:  12.6
      thresh= 2.277E-03 alpha_mix =  0.700 |ddv_scf|^2 =  1.061E-06

      iter #   4 total cpu time :  1469.1 secs   av.it.:  13.7
      thresh= 1.030E-04 alpha_mix =  0.700 |ddv_scf|^2 =  2.195E-08

      iter #   5 total cpu time :  1482.4 secs   av.it.:  13.7
      thresh= 1.482E-05 alpha_mix =  0.700 |ddv_scf|^2 =  6.282E-11

      iter #   6 total cpu time :  1488.8 secs   av.it.:  14.2
      thresh= 7.926E-07 alpha_mix =  0.700 |ddv_scf|^2 =  2.511E-11

      iter #   7 total cpu time :  1492.9 secs   av.it.:  12.8
      thresh= 5.011E-07 alpha_mix =  0.700 |ddv_scf|^2 =  2.033E-12

      iter #   8 total cpu time :  1500.6 secs   av.it.:  14.4
      thresh= 1.426E-07 alpha_mix =  0.700 |ddv_scf|^2 =  4.288E-13

      iter #   9 total cpu time :  1505.2 secs   av.it.:  14.2
      thresh= 6.548E-08 alpha_mix =  0.700 |ddv_scf|^2 =  1.592E-14

      iter #  10 total cpu time :  1511.9 secs   av.it.:  13.5
      thresh= 1.262E-08 alpha_mix =  0.700 |ddv_scf|^2 =  5.051E-16

      iter #  11 total cpu time :  1522.1 secs   av.it.:  13.4
      thresh= 2.247E-09 alpha_mix =  0.700 |ddv_scf|^2 =  1.683E-18

      iter #  12 total cpu time :  1529.4 secs   av.it.:  15.3
      thresh= 1.297E-10 alpha_mix =  0.700 |ddv_scf|^2 =  5.158E-19

      iter #  13 total cpu time :  1537.8 secs   av.it.:  14.0
      thresh= 7.182E-11 alpha_mix =  0.700 |ddv_scf|^2 =  6.339E-20

      iter #  14 total cpu time :  1543.3 secs   av.it.:  14.7
      thresh= 2.518E-11 alpha_mix =  0.700 |ddv_scf|^2 =  2.056E-20

      iter #  15 total cpu time :  1551.9 secs   av.it.:  14.4
      thresh= 1.434E-11 alpha_mix =  0.700 |ddv_scf|^2 =  1.157E-21

      iter #  16 total cpu time :  1556.9 secs   av.it.:  15.1
      thresh= 3.402E-12 alpha_mix =  0.700 |ddv_scf|^2 =  3.056E-22

     End of self-consistent calculation

     Convergence has been achieved 
 
     Number of q in the star =    3
     List of q in the star:
          1   0.000000000   0.096225045   0.000000000
          2   0.083333333  -0.048112522   0.000000000
          3  -0.083333333  -0.048112522   0.000000000
     In addition there is the -q list: 
          1   0.000000000  -0.096225045   0.000000000
          2  -0.083333333   0.048112522   0.000000000
          3   0.083333333   0.048112522   0.000000000

     Diagonalizing the dynamical matrix

     q = (    0.000000000   0.096225045   0.000000000 ) 

 **************************************************************************
     freq (    1) =       0.499912 [THz] =      16.675268 [cm-1]
     freq (    2) =       0.892398 [THz] =      29.767201 [cm-1]
     freq (    3) =       1.335123 [THz] =      44.534926 [cm-1]
     freq (    4) =       6.966379 [THz] =     232.373391 [cm-1]
     freq (    5) =       7.081743 [THz] =     236.221517 [cm-1]
     freq (    6) =       8.320909 [THz] =     277.555642 [cm-1]
     freq (    7) =       8.569192 [THz] =     285.837489 [cm-1]
     freq (    8) =      11.084451 [THz] =     369.737474 [cm-1]
     freq (    9) =      11.944038 [THz] =     398.410213 [cm-1]
 **************************************************************************

     Mode symmetry, C_2v (mm2)  point group:

     freq (   1-   1) =         16.7  [cm-1]   --> B_1  D_3  S_3      
     freq (   2-   2) =         29.8  [cm-1]   --> B_2  D_4  S_4      
     freq (   3-   3) =         44.5  [cm-1]   --> A_1  D_1  S_1      
     freq (   4-   4) =        232.4  [cm-1]   --> A_2  D_2  S_2      
     freq (   5-   5) =        236.2  [cm-1]   --> B_2  D_4  S_4      
     freq (   6-   6) =        277.6  [cm-1]   --> B_1  D_3  S_3      
     freq (   7-   7) =        285.8  [cm-1]   --> A_1  D_1  S_1      
     freq (   8-   8) =        369.7  [cm-1]   --> B_2  D_4  S_4      
     freq (   9-   9) =        398.4  [cm-1]   --> A_1  D_1  S_1      

     Calculation of q =    0.0000000   0.1924501   0.0000000
 
     Parallelization info
     --------------------
     sticks:   dense  smooth     PW     G-vecs:    dense   smooth      PW
     Min          60      31      9                 7329     2593     443
     Max          62      32     10                 7342     2605     464
     Sum        1099     559    163               132031    46753    8057
 
     Using Slab Decomposition
 

     Title: 
     TaS2                                                                       


     bravais-lattice index     =            4
     lattice parameter (alat)  =       6.3117  a.u.
     unit-cell volume          =     977.9382 (a.u.)^3
     number of atoms/cell      =            3
     number of atomic types    =            2
     number of electrons       =        17.00
     number of Kohn-Sham states=           13
     kinetic-energy cutoff     =      50.0000  Ry
     charge density cutoff     =     400.0000  Ry
     Exchange-correlation= PBE
                           (   1   4   3   4   0   0   0)

     celldm(1)=   6.311685  celldm(2)=   0.000000  celldm(3)=   4.491018
     celldm(4)=   0.000000  celldm(5)=   0.000000  celldm(6)=   0.000000

     crystal axes: (cart. coord. in units of alat)
               a(1) = (   1.000000   0.000000   0.000000 )  
               a(2) = (  -0.500000   0.866025   0.000000 )  
               a(3) = (   0.000000   0.000000   4.491018 )  

     reciprocal axes: (cart. coord. in units 2 pi/alat)
               b(1) = (  1.000000  0.577350  0.000000 )  
               b(2) = (  0.000000  1.154701  0.000000 )  
               b(3) = (  0.000000  0.000000  0.222667 )  


     PseudoPot. # 1 for Ta read from file:
     /fastscratch/tsievers/TaS2_24_ph_benchmark_images//pseudos/Ta.pbe-hgh.UPF
     MD5 check sum: 129c51a9a4223465c43ca8d238d17e53
     Pseudo is Norm-conserving, Zval =  5.0
     Generated in analytical, separable form
     Using radial grid of 1273 points,  6 beta functions with: 
                l(1) =   0
                l(2) =   0
                l(3) =   1
                l(4) =   1
                l(5) =   2
                l(6) =   2

     PseudoPot. # 2 for S  read from file:
     /fastscratch/tsievers/TaS2_24_ph_benchmark_images//pseudos/S.pbe-hgh.UPF
     MD5 check sum: 3a21e384b95a7cc84d045d3bcc0c4ba8
     Pseudo is Norm-conserving, Zval =  6.0
     Generated in analytical, separable form
     Using radial grid of 1151 points,  3 beta functions with: 
                l(1) =   0
                l(2) =   0
                l(3) =   1

     atomic species   valence    mass     pseudopotential
        Ta             5.00   180.95000     Ta( 1.00)
        S              6.00    32.06000     S ( 1.00)

     12 Sym. Ops. (no inversion) found



   Cartesian axes

     site n.     atom                  positions (alat units)
         1           S   tau(   1) = (  -0.0000000   0.5773503   0.4679048  )
         2           Ta  tau(   2) = (   0.0000000   0.0000000   0.0000000  )
         3           S   tau(   3) = (  -0.0000000   0.5773503  -0.4679048  )

     number of k points=   600  Marzari-Vanderbilt smearing, width (Ry)=  0.0060

     Number of k-points >= 100: set verbosity='high' to print them.

     Dense  grid:   132031 G-vectors     FFT dimensions: (  45,  45, 192)

     Smooth grid:    46753 G-vectors     FFT dimensions: (  30,  30, 128)

     Estimated max dynamical RAM per process >       6.83 MB

     Estimated total dynamical RAM >     491.75 MB
 ----2D----2D----2D----2D----2D----2D----2D----2D----2D----2D----2D----2D
  The code is running with the 2D cutoff
  Please refer to:
  Sohier, T., Calandra, M., & Mauri, F. (2017), 
  Density functional perturbation theory for gated two-dimensional heterostructu
 res:
  Theoretical developments and application to flexural phonons in graphene.
  Physical Review B, 96(7), 75448. https://doi.org/10.1103/PhysRevB.96.075448
 ----2D----2D----2D----2D----2D----2D----2D----2D----2D----2D----2D----2D

     The potential is recalculated from file :
     /fastscratch/tsievers/QE_TMP_DIR/_ph0/TaS2_24_ph_bench_nimages_2_n_procs_144_0.q_3/TaS2_24_ph_bench_nimages_2_n_procs_144_0.save/charge-density

     Starting wfcs are   27 atomic wfcs

     Band Structure Calculation
     Davidson diagonalization with overlap

     ethr =  5.88E-11,  avg # of iterations = 20.5

     total cpu time spent up to now is       37.2 secs

     End of band structure calculation

     Number of k-points >= 100: set verbosity='high' to print the bands.

     the Fermi energy is    -5.8804 ev

     Writing config to output data dir /fastscratch/tsievers/QE_TMP_DIR/_ph0/TaS2_24_ph_bench_nimages_2_n_procs_144_0.q_3/TaS2_24_ph_bench_nimages_2_n_procs_144_0.save/

     TaS2                                                                       

     bravais-lattice index     =            4
     lattice parameter (alat)  =       6.3117  a.u.
     unit-cell volume          =     977.9382 (a.u.)^3
     number of atoms/cell      =            3
     number of atomic types    =            2
     kinetic-energy cut-off    =      50.0000  Ry
     charge density cut-off    =     400.0000  Ry
     convergence threshold     =      1.0E-21
     beta                      =       0.7000
     number of iterations used =            4
     Exchange-correlation= PBE
                           (   1   4   3   4   0   0   0)


     celldm(1)=    6.31169  celldm(2)=    0.00000  celldm(3)=    4.49102
     celldm(4)=    0.00000  celldm(5)=    0.00000  celldm(6)=    0.00000

     crystal axes: (cart. coord. in units of alat)
               a(1) = (  1.0000  0.0000  0.0000 )  
               a(2) = ( -0.5000  0.8660  0.0000 )  
               a(3) = (  0.0000  0.0000  4.4910 )  

     reciprocal axes: (cart. coord. in units 2 pi/alat)
               b(1) = (  1.0000  0.5774  0.0000 )  
               b(2) = (  0.0000  1.1547  0.0000 )  
               b(3) = (  0.0000  0.0000  0.2227 )  


     Atoms inside the unit cell: 

     Cartesian axes

     site n.  atom      mass           positions (alat units)
        1     S   32.0600   tau(    1) = (   -0.00000    0.57735    0.46790  )
        2     Ta 180.9500   tau(    2) = (    0.00000    0.00000    0.00000  )
        3     S   32.0600   tau(    3) = (   -0.00000    0.57735   -0.46790  )

     Computing dynamical matrix for 
                    q = (   0.0000000   0.1924501   0.0000000 )
 
      4 Sym.Ops. (no q -> -q+G )


     G cutoff =  403.6370  (   7330 G-vectors)     FFT grid: ( 45, 45,192)
     G cutoff =  201.8185  (   2599 G-vectors)  smooth grid: ( 30, 30,128)

     number of k points=   600  Marzari-Vanderbilt smearing, width (Ry)=  0.0060

     PseudoPot. # 1 for Ta read from file:
     /fastscratch/tsievers/TaS2_24_ph_benchmark_images//pseudos/Ta.pbe-hgh.UPF
     MD5 check sum: 129c51a9a4223465c43ca8d238d17e53
     Pseudo is Norm-conserving, Zval =  5.0
     Generated in analytical, separable form
     Using radial grid of 1273 points,  6 beta functions with: 
                l(1) =   0
                l(2) =   0
                l(3) =   1
                l(4) =   1
                l(5) =   2
                l(6) =   2

     PseudoPot. # 2 for S  read from file:
     /fastscratch/tsievers/TaS2_24_ph_benchmark_images//pseudos/S.pbe-hgh.UPF
     MD5 check sum: 3a21e384b95a7cc84d045d3bcc0c4ba8
     Pseudo is Norm-conserving, Zval =  6.0
     Generated in analytical, separable form
     Using radial grid of 1151 points,  3 beta functions with: 
                l(1) =   0
                l(2) =   0
                l(3) =   1

     Mode symmetry, C_2v (mm2)  point group:


     Atomic displacements:
     There are    9 irreducible representations

     Representation     1      1 modes -  To be done

     Representation     2      1 modes -  To be done

     Representation     3      1 modes -  To be done

     Representation     4      1 modes -  To be done

     Representation     5      1 modes -  To be done

     Representation     6      1 modes -  To be done

     Representation     7      1 modes -  To be done

     Representation     8      1 modes -  To be done

     Representation     9      1 modes -  To be done



     Alpha used in Ewald sum =   2.8000
     PHONON       :  17m13.76s CPU  26m18.24s WALL



     Representation #   1 mode #   1

     Self-consistent Calculation

      iter #   1 total cpu time :  1584.1 secs   av.it.:   9.1
      thresh= 1.000E-02 alpha_mix =  0.700 |ddv_scf|^2 =  1.348E-03

      iter #   2 total cpu time :  1593.1 secs   av.it.:  15.4
      thresh= 3.671E-03 alpha_mix =  0.700 |ddv_scf|^2 =  1.292E+00

      iter #   3 total cpu time :  1600.6 secs   av.it.:  13.8
      thresh= 1.000E-02 alpha_mix =  0.700 |ddv_scf|^2 =  6.670E-05

      iter #   4 total cpu time :  1605.9 secs   av.it.:  13.3
      thresh= 8.167E-04 alpha_mix =  0.700 |ddv_scf|^2 =  5.211E-05

      iter #   5 total cpu time :  1611.6 secs   av.it.:  12.6
      thresh= 7.219E-04 alpha_mix =  0.700 |ddv_scf|^2 =  1.041E-07

      iter #   6 total cpu time :  1629.3 secs   av.it.:  14.0
      thresh= 3.227E-05 alpha_mix =  0.700 |ddv_scf|^2 =  5.658E-06

      iter #   7 total cpu time :  1635.8 secs   av.it.:  11.0
      thresh= 2.379E-04 alpha_mix =  0.700 |ddv_scf|^2 =  2.762E-08

      iter #   8 total cpu time :  1641.3 secs   av.it.:  13.2
      thresh= 1.662E-05 alpha_mix =  0.700 |ddv_scf|^2 =  1.347E-09

      iter #   9 total cpu time :  1650.0 secs   av.it.:  12.8
      thresh= 3.670E-06 alpha_mix =  0.700 |ddv_scf|^2 =  3.843E-11

      iter #  10 total cpu time :  1666.4 secs   av.it.:  12.7
      thresh= 6.199E-07 alpha_mix =  0.700 |ddv_scf|^2 =  1.779E-11

      iter #  11 total cpu time :  1673.0 secs   av.it.:  12.3
      thresh= 4.218E-07 alpha_mix =  0.700 |ddv_scf|^2 =  1.325E-11

      iter #  12 total cpu time :  1677.7 secs   av.it.:  11.9
      thresh= 3.640E-07 alpha_mix =  0.700 |ddv_scf|^2 =  6.103E-14

      iter #  13 total cpu time :  1699.9 secs   av.it.:  13.4
      thresh= 2.470E-08 alpha_mix =  0.700 |ddv_scf|^2 =  1.556E-14

      iter #  14 total cpu time :  1704.9 secs   av.it.:  12.3
      thresh= 1.247E-08 alpha_mix =  0.700 |ddv_scf|^2 =  5.051E-15

      iter #  15 total cpu time :  1719.9 secs   av.it.:  12.4
      thresh= 7.107E-09 alpha_mix =  0.700 |ddv_scf|^2 =  1.781E-15

      iter #  16 total cpu time :  1726.5 secs   av.it.:  11.3
      thresh= 4.221E-09 alpha_mix =  0.700 |ddv_scf|^2 =  1.615E-16

      iter #  17 total cpu time :  1737.0 secs   av.it.:  11.6
      thresh= 1.271E-09 alpha_mix =  0.700 |ddv_scf|^2 =  1.612E-17

      iter #  18 total cpu time :  1750.8 secs   av.it.:  11.5
      thresh= 4.014E-10 alpha_mix =  0.700 |ddv_scf|^2 =  3.311E-19

      iter #  19 total cpu time :  1760.7 secs   av.it.:  13.3
      thresh= 5.754E-11 alpha_mix =  0.700 |ddv_scf|^2 =  1.661E-19

      iter #  20 total cpu time :  1768.2 secs   av.it.:  12.6
      thresh= 4.076E-11 alpha_mix =  0.700 |ddv_scf|^2 =  6.594E-20

      iter #  21 total cpu time :  1779.0 secs   av.it.:  11.5
      thresh= 2.568E-11 alpha_mix =  0.700 |ddv_scf|^2 =  1.071E-21

      iter #  22 total cpu time :  1785.6 secs   av.it.:  13.5
      thresh= 3.273E-12 alpha_mix =  0.700 |ddv_scf|^2 =  1.210E-21

      iter #  23 total cpu time :  1790.0 secs   av.it.:  11.6
      thresh= 3.479E-12 alpha_mix =  0.700 |ddv_scf|^2 =  1.833E-22

     End of self-consistent calculation

     Convergence has been achieved 


     Representation #   2 mode #   2

     Self-consistent Calculation

      iter #   1 total cpu time :  1795.7 secs   av.it.:   9.1
      thresh= 1.000E-02 alpha_mix =  0.700 |ddv_scf|^2 =  6.146E-04

      iter #   2 total cpu time :  1801.2 secs   av.it.:  15.6
      thresh= 2.479E-03 alpha_mix =  0.700 |ddv_scf|^2 =  6.290E-01

      iter #   3 total cpu time :  1807.9 secs   av.it.:  13.2
      thresh= 1.000E-02 alpha_mix =  0.700 |ddv_scf|^2 =  3.644E-04

      iter #   4 total cpu time :  1815.7 secs   av.it.:  13.2
      thresh= 1.909E-03 alpha_mix =  0.700 |ddv_scf|^2 =  1.030E-03

      iter #   5 total cpu time :  1821.2 secs   av.it.:  11.6
      thresh= 3.209E-03 alpha_mix =  0.700 |ddv_scf|^2 =  1.367E-06

      iter #   6 total cpu time :  1827.4 secs   av.it.:  13.9
      thresh= 1.169E-04 alpha_mix =  0.700 |ddv_scf|^2 =  5.212E-05

      iter #   7 total cpu time :  1832.8 secs   av.it.:   9.8
      thresh= 7.220E-04 alpha_mix =  0.700 |ddv_scf|^2 =  1.932E-07

      iter #   8 total cpu time :  1837.6 secs   av.it.:  13.3
      thresh= 4.396E-05 alpha_mix =  0.700 |ddv_scf|^2 =  6.436E-08

      iter #   9 total cpu time :  1842.0 secs   av.it.:  12.2
      thresh= 2.537E-05 alpha_mix =  0.700 |ddv_scf|^2 =  2.467E-10

      iter #  10 total cpu time :  1855.3 secs   av.it.:  11.1
      thresh= 1.571E-06 alpha_mix =  0.700 |ddv_scf|^2 =  3.098E-11

      iter #  11 total cpu time :  1860.4 secs   av.it.:  12.8
      thresh= 5.566E-07 alpha_mix =  0.700 |ddv_scf|^2 =  1.641E-11

      iter #  12 total cpu time :  1864.5 secs   av.it.:  11.6
      thresh= 4.051E-07 alpha_mix =  0.700 |ddv_scf|^2 =  1.030E-12

      iter #  13 total cpu time :  1869.0 secs   av.it.:  12.2
      thresh= 1.015E-07 alpha_mix =  0.700 |ddv_scf|^2 =  1.579E-13

      iter #  14 total cpu time :  1878.8 secs   av.it.:  12.0
      thresh= 3.974E-08 alpha_mix =  0.700 |ddv_scf|^2 =  2.073E-14

      iter #  15 total cpu time :  1882.9 secs   av.it.:  12.2
      thresh= 1.440E-08 alpha_mix =  0.700 |ddv_scf|^2 =  9.349E-16

      iter #  16 total cpu time :  1887.4 secs   av.it.:  12.5
      thresh= 3.058E-09 alpha_mix =  0.700 |ddv_scf|^2 =  2.227E-16

      iter #  17 total cpu time :  1891.9 secs   av.it.:  11.6
      thresh= 1.492E-09 alpha_mix =  0.700 |ddv_scf|^2 =  6.611E-18

      iter #  18 total cpu time :  1898.4 secs   av.it.:  11.6
      thresh= 2.571E-10 alpha_mix =  0.700 |ddv_scf|^2 =  1.352E-18

      iter #  19 total cpu time :  1902.7 secs   av.it.:  11.7
      thresh= 1.163E-10 alpha_mix =  0.700 |ddv_scf|^2 =  1.980E-20

      iter #  20 total cpu time :  1908.0 secs   av.it.:  13.5
      thresh= 1.407E-11 alpha_mix =  0.700 |ddv_scf|^2 =  1.468E-20

      iter #  21 total cpu time :  1914.7 secs   av.it.:  13.2
      thresh= 1.211E-11 alpha_mix =  0.700 |ddv_scf|^2 =  6.949E-21

      iter #  22 total cpu time :  1921.5 secs   av.it.:  10.7
      thresh= 8.336E-12 alpha_mix =  0.700 |ddv_scf|^2 =  1.424E-21

      iter #  23 total cpu time :  1926.2 secs   av.it.:  12.2
      thresh= 3.774E-12 alpha_mix =  0.700 |ddv_scf|^2 =  1.624E-23

     End of self-consistent calculation

     Convergence has been achieved 


     Representation #   3 mode #   3

     Self-consistent Calculation

      iter #   1 total cpu time :  1930.4 secs   av.it.:   8.4
      thresh= 1.000E-02 alpha_mix =  0.700 |ddv_scf|^2 =  6.535E-04

      iter #   2 total cpu time :  1938.6 secs   av.it.:  15.4
      thresh= 2.556E-03 alpha_mix =  0.700 |ddv_scf|^2 =  6.313E-01

      iter #   3 total cpu time :  1946.1 secs   av.it.:  13.2
      thresh= 1.000E-02 alpha_mix =  0.700 |ddv_scf|^2 =  9.536E-06

      iter #   4 total cpu time :  1955.5 secs   av.it.:  12.0
      thresh= 3.088E-04 alpha_mix =  0.700 |ddv_scf|^2 =  9.246E-07

      iter #   5 total cpu time :  1960.0 secs   av.it.:  12.3
      thresh= 9.616E-05 alpha_mix =  0.700 |ddv_scf|^2 =  3.974E-07

      iter #   6 total cpu time :  1971.9 secs   av.it.:   9.9
      thresh= 6.304E-05 alpha_mix =  0.700 |ddv_scf|^2 =  2.537E-07

      iter #   7 total cpu time :  1977.5 secs   av.it.:  11.4
      thresh= 5.037E-05 alpha_mix =  0.700 |ddv_scf|^2 =  1.095E-09

      iter #   8 total cpu time :  1983.7 secs   av.it.:  13.6
      thresh= 3.310E-06 alpha_mix =  0.700 |ddv_scf|^2 =  2.303E-10

      iter #   9 total cpu time :  1990.1 secs   av.it.:  12.5
      thresh= 1.518E-06 alpha_mix =  0.700 |ddv_scf|^2 =  3.095E-11

      iter #  10 total cpu time :  1994.8 secs   av.it.:  12.3
      thresh= 5.564E-07 alpha_mix =  0.700 |ddv_scf|^2 =  1.177E-12

      iter #  11 total cpu time :  1998.7 secs   av.it.:  12.4
      thresh= 1.085E-07 alpha_mix =  0.700 |ddv_scf|^2 =  7.128E-13

      iter #  12 total cpu time :  2005.7 secs   av.it.:  11.5
      thresh= 8.443E-08 alpha_mix =  0.700 |ddv_scf|^2 =  4.878E-16

      iter #  13 total cpu time :  2021.4 secs   av.it.:  14.9
      thresh= 2.209E-09 alpha_mix =  0.700 |ddv_scf|^2 =  1.224E-15

      iter #  14 total cpu time :  2029.3 secs   av.it.:  12.9
      thresh= 3.499E-09 alpha_mix =  0.700 |ddv_scf|^2 =  3.013E-17

      iter #  15 total cpu time :  2043.0 secs   av.it.:  13.3
      thresh= 5.489E-10 alpha_mix =  0.700 |ddv_scf|^2 =  1.460E-17

      iter #  16 total cpu time :  2051.5 secs   av.it.:  11.6
      thresh= 3.821E-10 alpha_mix =  0.700 |ddv_scf|^2 =  3.427E-18

      iter #  17 total cpu time :  2065.0 secs   av.it.:  10.5
      thresh= 1.851E-10 alpha_mix =  0.700 |ddv_scf|^2 =  1.600E-18

      iter #  18 total cpu time :  2070.3 secs   av.it.:  12.2
      thresh= 1.265E-10 alpha_mix =  0.700 |ddv_scf|^2 =  2.921E-19

      iter #  19 total cpu time :  2076.2 secs   av.it.:  12.1
      thresh= 5.404E-11 alpha_mix =  0.700 |ddv_scf|^2 =  1.258E-20

      iter #  20 total cpu time :  2079.8 secs   av.it.:  12.3
      thresh= 1.122E-11 alpha_mix =  0.700 |ddv_scf|^2 =  3.954E-22

     End of self-consistent calculation

     Convergence has been achieved 


     Representation #   4 mode #   4

     Self-consistent Calculation

      iter #   1 total cpu time :  2083.3 secs   av.it.:   7.9
      thresh= 1.000E-02 alpha_mix =  0.700 |ddv_scf|^2 =  5.806E-08

      iter #   2 total cpu time :  2088.2 secs   av.it.:  16.3
      thresh= 2.410E-05 alpha_mix =  0.700 |ddv_scf|^2 =  5.616E-09

      iter #   3 total cpu time :  2127.9 secs   av.it.:  16.1
      thresh= 7.494E-06 alpha_mix =  0.700 |ddv_scf|^2 =  2.271E-10

      iter #   4 total cpu time :  2133.2 secs   av.it.:  14.4
      thresh= 1.507E-06 alpha_mix =  0.700 |ddv_scf|^2 =  6.406E-14

      iter #   5 total cpu time :  2140.4 secs   av.it.:  15.8
      thresh= 2.531E-08 alpha_mix =  0.700 |ddv_scf|^2 =  2.725E-15

      iter #   6 total cpu time :  2144.9 secs   av.it.:  15.2
      thresh= 5.220E-09 alpha_mix =  0.700 |ddv_scf|^2 =  1.078E-17

      iter #   7 total cpu time :  2152.6 secs   av.it.:  16.3
      thresh= 3.284E-10 alpha_mix =  0.700 |ddv_scf|^2 =  4.033E-19

      iter #   8 total cpu time :  2192.6 secs   av.it.:  16.8
      thresh= 6.350E-11 alpha_mix =  0.700 |ddv_scf|^2 =  1.376E-20

      iter #   9 total cpu time :  2197.5 secs   av.it.:  16.4
      thresh= 1.173E-11 alpha_mix =  0.700 |ddv_scf|^2 =  9.251E-22

     End of self-consistent calculation

     Convergence has been achieved 


     Representation #   5 mode #   5

     Self-consistent Calculation

      iter #   1 total cpu time :  2208.7 secs   av.it.:   7.1
      thresh= 1.000E-02 alpha_mix =  0.700 |ddv_scf|^2 =  9.371E-09

      iter #   2 total cpu time :  2215.7 secs   av.it.:  16.5
      thresh= 9.680E-06 alpha_mix =  0.700 |ddv_scf|^2 =  7.829E-10

      iter #   3 total cpu time :  2224.4 secs   av.it.:  16.1
      thresh= 2.798E-06 alpha_mix =  0.700 |ddv_scf|^2 =  7.763E-11

      iter #   4 total cpu time :  2229.5 secs   av.it.:  15.9
      thresh= 8.811E-07 alpha_mix =  0.700 |ddv_scf|^2 =  1.165E-12

      iter #   5 total cpu time :  2242.7 secs   av.it.:  16.3
      thresh= 1.080E-07 alpha_mix =  0.700 |ddv_scf|^2 =  5.125E-14

      iter #   6 total cpu time :  2248.1 secs   av.it.:  16.5
      thresh= 2.264E-08 alpha_mix =  0.700 |ddv_scf|^2 =  1.488E-16

      iter #   7 total cpu time :  2255.7 secs   av.it.:  16.5
      thresh= 1.220E-09 alpha_mix =  0.700 |ddv_scf|^2 =  4.161E-18

      iter #   8 total cpu time :  2288.7 secs   av.it.:  15.7
      thresh= 2.040E-10 alpha_mix =  0.700 |ddv_scf|^2 =  5.446E-20

      iter #   9 total cpu time :  2294.1 secs   av.it.:  16.1
      thresh= 2.334E-11 alpha_mix =  0.700 |ddv_scf|^2 =  2.257E-21

      iter #  10 total cpu time :  2298.8 secs   av.it.:  16.5
      thresh= 4.751E-12 alpha_mix =  0.700 |ddv_scf|^2 =  1.590E-22

     End of self-consistent calculation

     Convergence has been achieved 


     Representation #   6 mode #   6

     Self-consistent Calculation

      iter #   1 total cpu time :  2302.6 secs   av.it.:   8.0
      thresh= 1.000E-02 alpha_mix =  0.700 |ddv_scf|^2 =  7.155E-08

      iter #   2 total cpu time :  2307.4 secs   av.it.:  16.5
      thresh= 2.675E-05 alpha_mix =  0.700 |ddv_scf|^2 =  8.893E-09

      iter #   3 total cpu time :  2312.3 secs   av.it.:  16.2
      thresh= 9.431E-06 alpha_mix =  0.700 |ddv_scf|^2 =  2.514E-10

      iter #   4 total cpu time :  2335.1 secs   av.it.:  14.6
      thresh= 1.586E-06 alpha_mix =  0.700 |ddv_scf|^2 =  1.573E-13

      iter #   5 total cpu time :  2344.3 secs   av.it.:  16.2
      thresh= 3.967E-08 alpha_mix =  0.700 |ddv_scf|^2 =  1.984E-14

      iter #   6 total cpu time :  2354.2 secs   av.it.:  16.3
      thresh= 1.409E-08 alpha_mix =  0.700 |ddv_scf|^2 =  2.632E-16

      iter #   7 total cpu time :  2360.8 secs   av.it.:  16.4
      thresh= 1.622E-09 alpha_mix =  0.700 |ddv_scf|^2 =  1.456E-17

      iter #   8 total cpu time :  2366.4 secs   av.it.:  16.4
      thresh= 3.815E-10 alpha_mix =  0.700 |ddv_scf|^2 =  8.907E-20

      iter #   9 total cpu time :  2374.4 secs   av.it.:  16.7
      thresh= 2.984E-11 alpha_mix =  0.700 |ddv_scf|^2 =  4.317E-21

      iter #  10 total cpu time :  2395.6 secs   av.it.:  16.5
      thresh= 6.570E-12 alpha_mix =  0.700 |ddv_scf|^2 =  2.390E-22

     End of self-consistent calculation

     Convergence has been achieved 


     Representation #   7 mode #   7

     Self-consistent Calculation

      iter #   1 total cpu time :  2401.7 secs   av.it.:   8.4
      thresh= 1.000E-02 alpha_mix =  0.700 |ddv_scf|^2 =  4.209E-06

      iter #   2 total cpu time :  2410.5 secs   av.it.:  15.7
      thresh= 2.052E-04 alpha_mix =  0.700 |ddv_scf|^2 =  3.667E-05

      iter #   3 total cpu time :  2428.6 secs   av.it.:  13.6
      thresh= 6.056E-04 alpha_mix =  0.700 |ddv_scf|^2 =  3.902E-08

[...]
      thresh= 9.091E-04 alpha_mix =  0.700 |ddv_scf|^2 =  8.868E-08

      iter #   4 total cpu time : 14174.4 secs   av.it.:  15.8
      thresh= 2.978E-05 alpha_mix =  0.700 |ddv_scf|^2 =  4.341E-09

      iter #   5 total cpu time : 14184.9 secs   av.it.:  16.1
      thresh= 6.589E-06 alpha_mix =  0.700 |ddv_scf|^2 =  6.177E-10

      iter #   6 total cpu time : 14194.1 secs   av.it.:  16.1
      thresh= 2.485E-06 alpha_mix =  0.700 |ddv_scf|^2 =  2.411E-11

      iter #   7 total cpu time : 14203.5 secs   av.it.:  16.7
      thresh= 4.910E-07 alpha_mix =  0.700 |ddv_scf|^2 =  5.852E-11

      iter #   8 total cpu time : 14213.3 secs   av.it.:  15.4
      thresh= 7.650E-07 alpha_mix =  0.700 |ddv_scf|^2 =  6.903E-11

      iter #   9 total cpu time : 14223.2 secs   av.it.:  14.7
      thresh= 8.308E-07 alpha_mix =  0.700 |ddv_scf|^2 =  1.412E-11

      iter #  10 total cpu time : 14232.4 secs   av.it.:  14.8
      thresh= 3.757E-07 alpha_mix =  0.700 |ddv_scf|^2 =  2.046E-12

      iter #  11 total cpu time : 14240.9 secs   av.it.:  15.6
      thresh= 1.430E-07 alpha_mix =  0.700 |ddv_scf|^2 =  2.880E-13

      iter #  12 total cpu time : 14252.4 secs   av.it.:  15.8
      thresh= 5.367E-08 alpha_mix =  0.700 |ddv_scf|^2 =  2.055E-14

      iter #  13 total cpu time : 14263.1 secs   av.it.:  16.2
      thresh= 1.434E-08 alpha_mix =  0.700 |ddv_scf|^2 =  8.373E-15

      iter #  14 total cpu time : 14272.5 secs   av.it.:  16.2
      thresh= 9.150E-09 alpha_mix =  0.700 |ddv_scf|^2 =  3.338E-14

      iter #  15 total cpu time : 14282.9 secs   av.it.:  14.6
      thresh= 1.827E-08 alpha_mix =  0.700 |ddv_scf|^2 =  6.746E-15

      iter #  16 total cpu time : 14292.4 secs   av.it.:  15.2
      thresh= 8.214E-09 alpha_mix =  0.700 |ddv_scf|^2 =  2.554E-15

      iter #  17 total cpu time : 14301.6 secs   av.it.:  15.4
      thresh= 5.053E-09 alpha_mix =  0.700 |ddv_scf|^2 =  1.122E-15

      iter #  18 total cpu time : 14312.3 secs   av.it.:  15.6
      thresh= 3.349E-09 alpha_mix =  0.700 |ddv_scf|^2 =  4.221E-16

      iter #  19 total cpu time : 14321.3 secs   av.it.:  15.1
      thresh= 2.054E-09 alpha_mix =  0.700 |ddv_scf|^2 =  1.831E-17

      iter #  20 total cpu time : 14330.9 secs   av.it.:  16.6
      thresh= 4.279E-10 alpha_mix =  0.700 |ddv_scf|^2 =  2.109E-17

      iter #  21 total cpu time : 14341.7 secs   av.it.:  16.3
      thresh= 4.592E-10 alpha_mix =  0.700 |ddv_scf|^2 =  8.021E-17

      iter #  22 total cpu time : 14349.9 secs   av.it.:  14.8
      thresh= 8.956E-10 alpha_mix =  0.700 |ddv_scf|^2 =  8.561E-18

      iter #  23 total cpu time : 14360.6 secs   av.it.:  15.5
      thresh= 2.926E-10 alpha_mix =  0.700 |ddv_scf|^2 =  1.786E-18

      iter #  24 total cpu time : 14371.4 secs   av.it.:  16.7
      thresh= 1.336E-10 alpha_mix =  0.700 |ddv_scf|^2 =  2.569E-17

      iter #  25 total cpu time : 14381.3 secs   av.it.:  14.1
      thresh= 5.069E-10 alpha_mix =  0.700 |ddv_scf|^2 =  1.492E-19

      iter #  26 total cpu time : 14390.5 secs   av.it.:  16.0
      thresh= 3.863E-11 alpha_mix =  0.700 |ddv_scf|^2 =  4.780E-20

      iter #  27 total cpu time : 14399.7 secs   av.it.:  16.3
      thresh= 2.186E-11 alpha_mix =  0.700 |ddv_scf|^2 =  6.481E-20

      iter #  28 total cpu time : 14410.0 secs   av.it.:  15.4
      thresh= 2.546E-11 alpha_mix =  0.700 |ddv_scf|^2 =  6.390E-20

      iter #  29 total cpu time : 14419.9 secs   av.it.:  15.1
      thresh= 2.528E-11 alpha_mix =  0.700 |ddv_scf|^2 =  8.729E-21

      iter #  30 total cpu time : 14428.9 secs   av.it.:  15.9
      thresh= 9.343E-12 alpha_mix =  0.700 |ddv_scf|^2 =  1.044E-21

      iter #  31 total cpu time : 14439.8 secs   av.it.:  16.2
      thresh= 3.231E-12 alpha_mix =  0.700 |ddv_scf|^2 =  2.037E-21

      iter #  32 total cpu time : 14448.9 secs   av.it.:  15.1
      thresh= 4.513E-12 alpha_mix =  0.700 |ddv_scf|^2 =  1.130E-22

     End of self-consistent calculation

     Convergence has been achieved 


     Representation #   6 mode #   6

     Self-consistent Calculation

      iter #   1 total cpu time : 14455.0 secs   av.it.:   8.3
      thresh= 1.000E-02 alpha_mix =  0.700 |ddv_scf|^2 =  8.204E-07

      iter #   2 total cpu time : 14465.5 secs   av.it.:  16.3
      thresh= 9.057E-05 alpha_mix =  0.700 |ddv_scf|^2 =  1.266E-06

      iter #   3 total cpu time : 14476.4 secs   av.it.:  15.2
      thresh= 1.125E-04 alpha_mix =  0.700 |ddv_scf|^2 =  2.628E-08

      iter #   4 total cpu time : 14487.7 secs   av.it.:  15.7
      thresh= 1.621E-05 alpha_mix =  0.700 |ddv_scf|^2 =  3.405E-10

      iter #   5 total cpu time : 14498.5 secs   av.it.:  15.7
      thresh= 1.845E-06 alpha_mix =  0.700 |ddv_scf|^2 =  1.638E-11

      iter #   6 total cpu time : 14508.3 secs   av.it.:  16.1
      thresh= 4.047E-07 alpha_mix =  0.700 |ddv_scf|^2 =  4.665E-14

      iter #   7 total cpu time : 14516.7 secs   av.it.:  15.9
      thresh= 2.160E-08 alpha_mix =  0.700 |ddv_scf|^2 =  2.839E-15

      iter #   8 total cpu time : 14527.3 secs   av.it.:  15.6
      thresh= 5.328E-09 alpha_mix =  0.700 |ddv_scf|^2 =  2.788E-16

      iter #   9 total cpu time : 14537.7 secs   av.it.:  16.6
      thresh= 1.670E-09 alpha_mix =  0.700 |ddv_scf|^2 =  3.216E-16

      iter #  10 total cpu time : 14546.0 secs   av.it.:  15.4
      thresh= 1.793E-09 alpha_mix =  0.700 |ddv_scf|^2 =  1.256E-17

      iter #  11 total cpu time : 14555.9 secs   av.it.:  16.1
      thresh= 3.544E-10 alpha_mix =  0.700 |ddv_scf|^2 =  1.609E-18

      iter #  12 total cpu time : 14566.3 secs   av.it.:  16.1
      thresh= 1.269E-10 alpha_mix =  0.700 |ddv_scf|^2 =  6.402E-19

      iter #  13 total cpu time : 14575.8 secs   av.it.:  15.6
      thresh= 8.001E-11 alpha_mix =  0.700 |ddv_scf|^2 =  3.944E-20

      iter #  14 total cpu time : 14585.5 secs   av.it.:  16.2
      thresh= 1.986E-11 alpha_mix =  0.700 |ddv_scf|^2 =  3.407E-21

      iter #  15 total cpu time : 14595.4 secs   av.it.:  16.4
      thresh= 5.837E-12 alpha_mix =  0.700 |ddv_scf|^2 =  6.219E-22

     End of self-consistent calculation

     Convergence has been achieved 


     Representation #   7 mode #   7

     Self-consistent Calculation

      iter #   1 total cpu time : 14601.4 secs   av.it.:   7.7
      thresh= 1.000E-02 alpha_mix =  0.700 |ddv_scf|^2 =  2.142E-07

      iter #   2 total cpu time : 14610.2 secs   av.it.:  16.5
      thresh= 4.628E-05 alpha_mix =  0.700 |ddv_scf|^2 =  4.291E-07

      iter #   3 total cpu time : 14620.1 secs   av.it.:  15.1
      thresh= 6.551E-05 alpha_mix =  0.700 |ddv_scf|^2 =  2.937E-09

      iter #   4 total cpu time : 14632.9 secs   av.it.:  15.9
      thresh= 5.420E-06 alpha_mix =  0.700 |ddv_scf|^2 =  1.286E-10

      iter #   5 total cpu time : 14642.7 secs   av.it.:  15.8
      thresh= 1.134E-06 alpha_mix =  0.700 |ddv_scf|^2 =  3.938E-12

      iter #   6 total cpu time : 14653.2 secs   av.it.:  16.1
      thresh= 1.984E-07 alpha_mix =  0.700 |ddv_scf|^2 =  1.510E-13

      iter #   7 total cpu time : 14662.2 secs   av.it.:  16.1
      thresh= 3.886E-08 alpha_mix =  0.700 |ddv_scf|^2 =  1.614E-15

      iter #   8 total cpu time : 14672.2 secs   av.it.:  16.2
      thresh= 4.018E-09 alpha_mix =  0.700 |ddv_scf|^2 =  3.955E-16

      iter #   9 total cpu time : 14683.6 secs   av.it.:  16.4
      thresh= 1.989E-09 alpha_mix =  0.700 |ddv_scf|^2 =  1.784E-16

      iter #  10 total cpu time : 14692.2 secs   av.it.:  15.9
      thresh= 1.336E-09 alpha_mix =  0.700 |ddv_scf|^2 =  2.707E-17

      iter #  11 total cpu time : 14701.0 secs   av.it.:  15.8
      thresh= 5.203E-10 alpha_mix =  0.700 |ddv_scf|^2 =  9.488E-19

      iter #  12 total cpu time : 14713.6 secs   av.it.:  16.1
      thresh= 9.741E-11 alpha_mix =  0.700 |ddv_scf|^2 =  1.788E-19

      iter #  13 total cpu time : 14723.2 secs   av.it.:  16.1
      thresh= 4.228E-11 alpha_mix =  0.700 |ddv_scf|^2 =  2.769E-20

      iter #  14 total cpu time : 14732.1 secs   av.it.:  16.1
      thresh= 1.664E-11 alpha_mix =  0.700 |ddv_scf|^2 =  1.965E-21

      iter #  15 total cpu time : 14741.5 secs   av.it.:  16.2
      thresh= 4.433E-12 alpha_mix =  0.700 |ddv_scf|^2 =  1.578E-22

     End of self-consistent calculation

     Convergence has been achieved 


     Representation #   8 mode #   8

     Self-consistent Calculation

      iter #   1 total cpu time : 14747.7 secs   av.it.:   8.1
      thresh= 1.000E-02 alpha_mix =  0.700 |ddv_scf|^2 =  2.569E-07

      iter #   2 total cpu time : 14757.2 secs   av.it.:  16.3
      thresh= 5.069E-05 alpha_mix =  0.700 |ddv_scf|^2 =  3.061E-07

      iter #   3 total cpu time : 14765.8 secs   av.it.:  15.4
      thresh= 5.533E-05 alpha_mix =  0.700 |ddv_scf|^2 =  1.806E-08

      iter #   4 total cpu time : 14779.8 secs   av.it.:  15.4
      thresh= 1.344E-05 alpha_mix =  0.700 |ddv_scf|^2 =  3.464E-10

      iter #   5 total cpu time : 14788.5 secs   av.it.:  15.5
      thresh= 1.861E-06 alpha_mix =  0.700 |ddv_scf|^2 =  2.210E-11

      iter #   6 total cpu time : 14797.8 secs   av.it.:  15.9
      thresh= 4.701E-07 alpha_mix =  0.700 |ddv_scf|^2 =  1.001E-13

      iter #   7 total cpu time : 14806.5 secs   av.it.:  15.0
      thresh= 3.165E-08 alpha_mix =  0.700 |ddv_scf|^2 =  7.702E-15

      iter #   8 total cpu time : 14818.8 secs   av.it.:  15.2
      thresh= 8.776E-09 alpha_mix =  0.700 |ddv_scf|^2 =  1.991E-16

      iter #   9 total cpu time : 14829.5 secs   av.it.:  16.1
      thresh= 1.411E-09 alpha_mix =  0.700 |ddv_scf|^2 =  1.352E-17

      iter #  10 total cpu time : 14839.5 secs   av.it.:  16.4
      thresh= 3.677E-10 alpha_mix =  0.700 |ddv_scf|^2 =  1.106E-17

      iter #  11 total cpu time : 14849.3 secs   av.it.:  15.3
      thresh= 3.325E-10 alpha_mix =  0.700 |ddv_scf|^2 =  2.419E-19

      iter #  12 total cpu time : 14859.9 secs   av.it.:  16.3
      thresh= 4.919E-11 alpha_mix =  0.700 |ddv_scf|^2 =  1.495E-19

      iter #  13 total cpu time : 14869.2 secs   av.it.:  15.6
      thresh= 3.867E-11 alpha_mix =  0.700 |ddv_scf|^2 =  6.442E-21

      iter #  14 total cpu time : 14879.6 secs   av.it.:  16.0
      thresh= 8.026E-12 alpha_mix =  0.700 |ddv_scf|^2 =  1.019E-21

      iter #  15 total cpu time : 14888.3 secs   av.it.:  16.1
      thresh= 3.192E-12 alpha_mix =  0.700 |ddv_scf|^2 =  6.140E-23

     End of self-consistent calculation

     Convergence has been achieved 


     Representation #   9 mode #   9

     Self-consistent Calculation

      iter #   1 total cpu time : 14895.5 secs   av.it.:   8.1
      thresh= 1.000E-02 alpha_mix =  0.700 |ddv_scf|^2 =  2.906E-07

      iter #   2 total cpu time : 14905.6 secs   av.it.:  16.4
      thresh= 5.391E-05 alpha_mix =  0.700 |ddv_scf|^2 =  3.846E-07

      iter #   3 total cpu time : 14914.6 secs   av.it.:  15.3
      thresh= 6.202E-05 alpha_mix =  0.700 |ddv_scf|^2 =  1.308E-08

      iter #   4 total cpu time : 14924.5 secs   av.it.:  15.7
      thresh= 1.144E-05 alpha_mix =  0.700 |ddv_scf|^2 =  4.481E-10

      iter #   5 total cpu time : 14948.9 secs   av.it.:  16.0
      thresh= 2.117E-06 alpha_mix =  0.700 |ddv_scf|^2 =  4.891E-11

      iter #   6 total cpu time : 14957.6 secs   av.it.:  15.9
      thresh= 6.994E-07 alpha_mix =  0.700 |ddv_scf|^2 =  4.769E-14

      iter #   7 total cpu time : 14966.5 secs   av.it.:  15.7
      thresh= 2.184E-08 alpha_mix =  0.700 |ddv_scf|^2 =  2.576E-15

      iter #   8 total cpu time : 14977.3 secs   av.it.:  15.9
      thresh= 5.076E-09 alpha_mix =  0.700 |ddv_scf|^2 =  4.475E-16

      iter #   9 total cpu time : 14987.0 secs   av.it.:  15.9
      thresh= 2.115E-09 alpha_mix =  0.700 |ddv_scf|^2 =  1.885E-17

      iter #  10 total cpu time : 14996.6 secs   av.it.:  16.4
      thresh= 4.342E-10 alpha_mix =  0.700 |ddv_scf|^2 =  1.068E-18

      iter #  11 total cpu time : 15007.6 secs   av.it.:  16.2
      thresh= 1.034E-10 alpha_mix =  0.700 |ddv_scf|^2 =  4.354E-19

      iter #  12 total cpu time : 15018.5 secs   av.it.:  16.1
      thresh= 6.599E-11 alpha_mix =  0.700 |ddv_scf|^2 =  2.337E-19

      iter #  13 total cpu time : 15028.4 secs   av.it.:  15.5
      thresh= 4.834E-11 alpha_mix =  0.700 |ddv_scf|^2 =  4.197E-21

      iter #  14 total cpu time : 15038.1 secs   av.it.:  16.2
      thresh= 6.478E-12 alpha_mix =  0.700 |ddv_scf|^2 =  4.407E-22

     End of self-consistent calculation

     Convergence has been achieved 
 
     Number of q in the star =    6
     List of q in the star:
          1   0.083333333   0.433012702   0.000000000
          2  -0.083333333   0.433012702   0.000000000
          3   0.333333333  -0.288675135   0.000000000
          4  -0.416666667  -0.144337567   0.000000000
          5  -0.333333333  -0.288675135   0.000000000
          6   0.416666667  -0.144337567   0.000000000
     In addition there is the -q list: 
          1  -0.083333333  -0.433012702   0.000000000
          2   0.083333333  -0.433012702   0.000000000
          3  -0.333333333   0.288675135   0.000000000
          4   0.416666667   0.144337567   0.000000000
          5   0.333333333   0.288675135   0.000000000
          6  -0.416666667   0.144337567   0.000000000

     Diagonalizing the dynamical matrix

     q = (    0.083333333   0.433012702   0.000000000 ) 

 **************************************************************************
     freq (    1) =      -2.639859 [THz] =     -88.056223 [cm-1]
     freq (    2) =       2.199407 [THz] =      73.364329 [cm-1]
     freq (    3) =       2.879589 [THz] =      96.052739 [cm-1]
     freq (    4) =       6.774685 [THz] =     225.979158 [cm-1]
     freq (    5) =       8.263308 [THz] =     275.634279 [cm-1]
     freq (    6) =       9.199991 [THz] =     306.878672 [cm-1]
     freq (    7) =       9.297516 [THz] =     310.131762 [cm-1]
     freq (    8) =       9.737614 [THz] =     324.811837 [cm-1]
     freq (    9) =      11.365401 [THz] =     379.108964 [cm-1]
 **************************************************************************

     Mode symmetry, C_s (m)     point group:

     freq (   1-   1) =        -88.1  [cm-1]   --> A'                 
     freq (   2-   2) =         73.4  [cm-1]   --> A''                
     freq (   3-   3) =         96.1  [cm-1]   --> A'                 
     freq (   4-   4) =        226.0  [cm-1]   --> A'                 
     freq (   5-   5) =        275.6  [cm-1]   --> A''                
     freq (   6-   6) =        306.9  [cm-1]   --> A''                
     freq (   7-   7) =        310.1  [cm-1]   --> A'                 
     freq (   8-   8) =        324.8  [cm-1]   --> A''                
     freq (   9-   9) =        379.1  [cm-1]   --> A'                 
 
     init_run     :      1.82s CPU      8.89s WALL (      10 calls)
     electrons    :    232.22s CPU    236.61s WALL (      10 calls)

     Called by init_run:
     wfcinit      :      0.00s CPU      0.28s WALL (      10 calls)
     potinit      :      0.16s CPU      6.90s WALL (      10 calls)
     hinit0       :      0.98s CPU      0.98s WALL (      10 calls)

     Called by electrons:
     c_bands      :    232.17s CPU    236.55s WALL (      10 calls)
     v_of_rho     :      0.12s CPU      0.13s WALL (      11 calls)

     Called by c_bands:
     init_us_2    :     23.21s CPU     24.66s WALL (  190961 calls)
     init_us_2:cp :     22.71s CPU     24.20s WALL (  190961 calls)
     cegterg      :    117.93s CPU    121.02s WALL (    2873 calls)

     Called by *egterg:
     cdiaghg      :     17.78s CPU     18.26s WALL (   42273 calls)
     h_psi        :   4499.31s CPU   4662.60s WALL ( 3536391 calls)
     g_psi        :      0.84s CPU      0.86s WALL (   40291 calls)

     Called by h_psi:
     h_psi:calbec :    225.90s CPU    234.00s WALL ( 3536391 calls)
     vloc_psi     :   4082.50s CPU   4230.82s WALL ( 3536391 calls)
     add_vuspsi   :    154.34s CPU    161.24s WALL ( 3536391 calls)

     General routines
     calbec       :    397.81s CPU    413.61s WALL ( 7074054 calls)
     fft          :     12.51s CPU     12.81s WALL (   22495 calls)
     ffts         :      5.36s CPU      5.46s WALL (   14168 calls)
     fftw         :   4841.24s CPU   5010.21s WALL (49316328 calls)
     interpolate  :      2.79s CPU      2.86s WALL (    3431 calls)
     davcio       :     27.51s CPU    412.84s WALL (  884915 calls)
 
     Parallel routines
 
     PHONON       :      3h15m CPU      4h10m WALL

     INITIALIZATION: 
     phq_setup    :      0.36s CPU      1.94s WALL (      11 calls)
     phq_init     :      3.61s CPU      4.15s WALL (      11 calls)
 
     phq_init     :      3.61s CPU      4.15s WALL (      11 calls)
     init_vloc    :      0.63s CPU      0.63s WALL (      11 calls)
     init_us_1    :      0.35s CPU      0.36s WALL (      11 calls)
     init_us_2    :     23.21s CPU     24.66s WALL (  190961 calls)
 
     DYNAMICAL MATRIX:
     dynmat0      :      1.43s CPU      1.84s WALL (      11 calls)
     phqscf       :  11501.40s CPU  14699.60s WALL (      11 calls)
     dynmatrix    :      1.46s CPU      1.79s WALL (      11 calls)
 
     phqscf       :  11501.40s CPU  14699.60s WALL (      11 calls)
     solve_linter :  11495.20s CPU  14654.59s WALL (      96 calls)
     drhodv       :      6.02s CPU      6.44s WALL (      96 calls)
 
     dynmat0      :      1.43s CPU      1.84s WALL (      11 calls)
     dynmat_us    :      1.38s CPU      1.42s WALL (      11 calls)
     d2ionq       :      0.04s CPU      0.04s WALL (      11 calls)
 
     dynmat_us    :      1.38s CPU      1.42s WALL (      11 calls)
 
     phqscf       :  11501.40s CPU  14699.60s WALL (      11 calls)
     solve_linter :  11495.20s CPU  14654.59s WALL (      96 calls)
 
     solve_linter :  11495.20s CPU  14654.59s WALL (      96 calls)
     dvqpsi_us    :     30.07s CPU     31.28s WALL (    9063 calls)
     sth_kernel   :  10008.97s CPU  10545.24s WALL (    1675 calls)
     apply_dpot_b :    276.96s CPU    295.16s WALL (  160208 calls)
     ortho        :     18.26s CPU     19.39s WALL (  169271 calls)
     cgsolve      :   4975.88s CPU   5157.43s WALL (  169271 calls)
     incdrhoscf   :    844.70s CPU    859.71s WALL (  169271 calls)
     dv_of_drho   :     16.66s CPU     17.05s WALL (    1702 calls)
     mix_pot      :    157.85s CPU   1775.96s WALL (    1675 calls)
     ef_shift     :      0.10s CPU      0.11s WALL (      67 calls)
     ef_shift_wfc :      0.00s CPU      0.01s WALL (       6 calls)
     localdos     :      0.80s CPU      0.81s WALL (       6 calls)
     psymdvscf    :     88.99s CPU     90.13s WALL (    1675 calls)
 
     dvqpsi_us    :     30.07s CPU     31.28s WALL (    9063 calls)
     dvqpsi_us_on :      2.39s CPU      2.50s WALL (    9063 calls)
 
     cgsolve      :   4975.88s CPU   5157.43s WALL (  169271 calls)
     ch_psi       :   4859.23s CPU   5035.07s WALL ( 3491245 calls)
 
     ch_psi       :   4859.23s CPU   5035.07s WALL ( 3491245 calls)
     h_psi        :   4499.31s CPU   4662.60s WALL ( 3536391 calls)
     last         :    401.98s CPU    416.56s WALL ( 3491245 calls)
 
     h_psi        :   4499.31s CPU   4662.60s WALL ( 3536391 calls)
     add_vuspsi   :    154.34s CPU    161.24s WALL ( 3536391 calls)
 
     incdrhoscf   :    844.70s CPU    859.71s WALL (  169271 calls)
 
 
      General routines
     calbec       :    397.81s CPU    413.61s WALL ( 7074054 calls)
     fft          :     12.51s CPU     12.81s WALL (   22495 calls)
     ffts         :      5.36s CPU      5.46s WALL (   14168 calls)
     fftw         :   4841.24s CPU   5010.21s WALL (49316328 calls)
     davcio       :     27.51s CPU    412.84s WALL (  884915 calls)
     write_rec    :      1.85s CPU   1030.67s WALL (    1771 calls)
 
 
     PHONON       :      3h15m CPU      4h10m WALL

 
   This run was terminated on:  18: 1:52   7Jun2022            

=------------------------------------------------------------------------------=
   JOB DONE.
=------------------------------------------------------------------------------=
