Module for gcc 10.2:
(GNU C/C++/FORTRAN compilers v10.2.0) - loaded.
Module for OpenMPI 4.1.0-gcc10.2-infiniband loaded.

     Program PWSCF v.7.0 starts on 12Feb2022 at 14:25:43 

     This program is part of the open-source Quantum ESPRESSO suite
     for quantum simulation of materials; please cite
         "P. Giannozzi et al., J. Phys.:Condens. Matter 21 395502 (2009);
         "P. Giannozzi et al., J. Phys.:Condens. Matter 29 465901 (2017);
         "P. Giannozzi et al., J. Chem. Phys. 152 154105 (2020);
          URL http://www.quantum-espresso.org", 
     in publications or presentations arising from this work. More details at
     http://www.quantum-espresso.org/quote

     Parallel version (MPI), running on     1 processors

     MPI processes distributed on     1 nodes
     49764 MiB available memory on the printing compute node when the environment starts

     Reading input from in_files/kp_26.scf

     Current dimensions of program PWSCF are:
     Max number of different atomic species (ntypx) = 10
     Max number of k-points (npk) =  40000
     Max angular momentum in pseudopotentials (lmaxx) =  4

     Subspace diagonalization in iterative solution of the eigenvalue problem:
     a serial algorithm will be used


     G-vector sticks info
     --------------------
     sticks:   dense  smooth     PW     G-vecs:    dense   smooth      PW
     Sum         313     313    121                 3839     3839     821

     Using Slab Decomposition



     bravais-lattice index     =            2
     lattice parameter (alat)  =      10.2000  a.u.
     unit-cell volume          =     265.3020 (a.u.)^3
     number of atoms/cell      =            2
     number of atomic types    =            1
     number of electrons       =         8.00
     number of Kohn-Sham states=            4
     kinetic-energy cutoff     =      23.0000  Ry
     charge density cutoff     =      92.0000  Ry
     scf convergence threshold =      1.0E-12
     mixing beta               =       0.7000
     number of iterations used =            8  plain     mixing
     Exchange-correlation= PBE
                           (   1   4   3   4   0   0   0)

     celldm(1)=  10.200000  celldm(2)=   0.000000  celldm(3)=   0.000000
     celldm(4)=   0.000000  celldm(5)=   0.000000  celldm(6)=   0.000000

     crystal axes: (cart. coord. in units of alat)
               a(1) = (  -0.500000   0.000000   0.500000 )  
               a(2) = (   0.000000   0.500000   0.500000 )  
               a(3) = (  -0.500000   0.500000   0.000000 )  

     reciprocal axes: (cart. coord. in units 2 pi/alat)
               b(1) = ( -1.000000 -1.000000  1.000000 )  
               b(2) = (  1.000000  1.000000  1.000000 )  
               b(3) = ( -1.000000  1.000000 -1.000000 )  


     PseudoPot. # 1 for Si read from file:
     ./pseudos/Si_pbe_v0.4.1.nc.sr.upf
     MD5 check sum: 02fab3f35e82123ef5bf1cb05d5b1a5e
     Pseudo is Norm-conserving + core correction, Zval =  4.0
     Generated using ONCVPSP code by D. R. Hamann
     Using radial grid of 1510 points,  6 beta functions with: 
                l(1) =   0
                l(2) =   0
                l(3) =   1
                l(4) =   1
                l(5) =   2
                l(6) =   2

     atomic species   valence    mass     pseudopotential
        Si             4.00    28.08600     Si( 1.00)

     48 Sym. Ops., with inversion, found (24 have fractional translation)



   Cartesian axes

     site n.     atom                  positions (alat units)
         1           Si  tau(   1) = (   0.0000000   0.0000000   0.0000000  )
         2           Si  tau(   2) = (   0.2500000   0.2500000   0.2500000  )

     number of k points=   511

     Number of k-points >= 100: set verbosity='high' to print them.

     Dense  grid:     3839 G-vectors     FFT dimensions: (  24,  24,  24)

     Estimated max dynamical RAM per process >      19.15 MB

     Initial potential from superposition of free atoms

     starting charge       7.9988, renormalised to       8.0000
     Starting wfcs are    8 randomized atomic wfcs

     total cpu time spent up to now is        1.8 secs

     Self-consistent Calculation

     iteration #  1     ecut=    23.00 Ry     beta= 0.70
     Davidson diagonalization with overlap
     ethr =  1.00E-02,  avg # of iterations =  2.0

     Threshold (ethr) on eigenvalues was too large:
     Diagonalizing with lowered threshold

     Davidson diagonalization with overlap
     ethr =  5.90E-04,  avg # of iterations =  2.0

     total cpu time spent up to now is        7.1 secs

     total energy              =     -16.92072869 Ry
     estimated scf accuracy    <       0.05534050 Ry

     iteration #  2     ecut=    23.00 Ry     beta= 0.70
     Davidson diagonalization with overlap
     ethr =  6.92E-04,  avg # of iterations =  1.0

     total cpu time spent up to now is        9.1 secs

     total energy              =     -16.92241595 Ry
     estimated scf accuracy    <       0.00286691 Ry

     iteration #  3     ecut=    23.00 Ry     beta= 0.70
     Davidson diagonalization with overlap
     ethr =  3.58E-05,  avg # of iterations =  2.2

     total cpu time spent up to now is       11.7 secs

     total energy              =     -16.92303270 Ry
     estimated scf accuracy    <       0.00006554 Ry

     iteration #  4     ecut=    23.00 Ry     beta= 0.70
     Davidson diagonalization with overlap
     ethr =  8.19E-07,  avg # of iterations =  5.0

     total cpu time spent up to now is       15.3 secs

     total energy              =     -16.92311070 Ry
     estimated scf accuracy    <       0.00000021 Ry

     iteration #  5     ecut=    23.00 Ry     beta= 0.70
     Davidson diagonalization with overlap
     ethr =  2.63E-09,  avg # of iterations =  6.6

     total cpu time spent up to now is       19.7 secs

     total energy              =     -16.92311219 Ry
     estimated scf accuracy    <       0.00000002 Ry

     iteration #  6     ecut=    23.00 Ry     beta= 0.70
     Davidson diagonalization with overlap
     ethr =  2.16E-10,  avg # of iterations =  2.5

     total cpu time spent up to now is       22.4 secs

     total energy              =     -16.92311219 Ry
     estimated scf accuracy    <          3.6E-09 Ry

     iteration #  7     ecut=    23.00 Ry     beta= 0.70
     Davidson diagonalization with overlap
     ethr =  4.55E-11,  avg # of iterations =  2.4

     total cpu time spent up to now is       24.9 secs

     total energy              =     -16.92311219 Ry
     estimated scf accuracy    <          1.7E-10 Ry

     iteration #  8     ecut=    23.00 Ry     beta= 0.70
     Davidson diagonalization with overlap
     ethr =  2.15E-12,  avg # of iterations =  3.4

     total cpu time spent up to now is       27.8 secs

     total energy              =     -16.92311219 Ry
     estimated scf accuracy    <          3.5E-12 Ry

     iteration #  9     ecut=    23.00 Ry     beta= 0.70
     Davidson diagonalization with overlap
     ethr =  1.00E-13,  avg # of iterations =  3.7

     total cpu time spent up to now is       30.6 secs

     End of self-consistent calculation

     Number of k-points >= 100: set verbosity='high' to print the bands.

     highest occupied level (ev):     6.4252

!    total energy              =     -16.92311219 Ry
     estimated scf accuracy    <          4.3E-13 Ry

     The total energy is the sum of the following terms:
     one-electron contribution =       5.10175685 Ry
     hartree contribution      =       1.07881464 Ry
     xc contribution           =      -6.20392508 Ry
     ewald contribution        =     -16.89975860 Ry

     convergence has been achieved in   9 iterations

     Forces acting on atoms (cartesian axes, Ry/au):

     atom    1 type  1   force =     0.00000000    0.00000000    0.00000000
     atom    2 type  1   force =    -0.00000000   -0.00000000   -0.00000000

     Total force =     0.000000     Total SCF correction =     0.000000


     Computing stress (Cartesian axis) and pressure

          total   stress  (Ry/bohr**3)                   (kbar)     P=       36.97
   0.00025132  -0.00000000   0.00000000           36.97       -0.00        0.00
  -0.00000000   0.00025132   0.00000000           -0.00       36.97        0.00
   0.00000000   0.00000000   0.00025132            0.00        0.00       36.97


     Writing all to output data dir /fastscratch/tsievers/QE_TMP_DIR/silicon_bench_singlecore_kpoints_26.save/

     init_run     :      1.72s CPU      1.75s WALL (       1 calls)
     electrons    :     28.34s CPU     28.84s WALL (       1 calls)
     forces       :      0.39s CPU      0.39s WALL (       1 calls)
     stress       :      1.58s CPU      1.58s WALL (       1 calls)

     Called by init_run:
     wfcinit      :      1.52s CPU      1.55s WALL (       1 calls)
     potinit      :      0.01s CPU      0.01s WALL (       1 calls)
     hinit0       :      0.17s CPU      0.17s WALL (       1 calls)

     Called by electrons:
     c_bands      :     25.01s CPU     25.46s WALL (      10 calls)
     sum_band     :      3.26s CPU      3.30s WALL (      10 calls)
     v_of_rho     :      0.07s CPU      0.08s WALL (      10 calls)
     mix_rho      :      0.00s CPU      0.01s WALL (      10 calls)

     Called by c_bands:
     init_us_2    :      2.05s CPU      2.08s WALL (   11753 calls)
     init_us_2:cp :      2.02s CPU      2.06s WALL (   11753 calls)
     cegterg      :     21.01s CPU     21.37s WALL (    5110 calls)

     Called by *egterg:
     cdiaghg      :      0.51s CPU      0.53s WALL (   20303 calls)
     h_psi        :     19.60s CPU     19.94s WALL (   21325 calls)
     g_psi        :      0.18s CPU      0.18s WALL (   15704 calls)

     Called by h_psi:
     h_psi:calbec :      1.90s CPU      1.93s WALL (   21325 calls)
     vloc_psi     :     15.56s CPU     15.83s WALL (   21325 calls)
     add_vuspsi   :      1.99s CPU      2.02s WALL (   21325 calls)

     General routines
     calbec       :      2.13s CPU      2.17s WALL (   23880 calls)
     fft          :      0.13s CPU      0.13s WALL (     125 calls)
     ffts         :      0.00s CPU      0.00s WALL (      10 calls)
     fftw         :     15.53s CPU     15.81s WALL (  163454 calls)

     Parallel routines

     PWSCF        :     32.17s CPU     33.88s WALL


   This run was terminated on:  14:26:16  12Feb2022            

=------------------------------------------------------------------------------=
   JOB DONE.
=------------------------------------------------------------------------------=
