Module for intel-oneAPI 2021.4 loaded.
 
:: initializing oneAPI environment ...
   2715769: BASH_VERSION = 4.4.20(1)-release
:: advisor -- latest
:: ccl -- latest
:: clck -- latest
:: compiler -- latest
:: dal -- latest
:: debugger -- latest
:: dev-utilities -- latest
:: dnnl -- latest
:: dpcpp-ct -- latest
:: dpl -- latest
:: inspector -- latest
:: intelpython -- latest
:: ipp -- latest
:: ippcp -- latest
:: ipp -- latest
:: itac -- latest
:: LPOT -- latest
:: mkl -- latest
:: modelzoo -- latest
:: mpi -- latest
:: pytorch -- latest
:: tbb -- latest
:: tensorflow -- latest
:: vpl -- latest
:: vtune -- latest
:: oneAPI environment initialized ::
 

     Program PWSCF v.7.0 starts on 17May2022 at 18:56:51 

     This program is part of the open-source Quantum ESPRESSO suite
     for quantum simulation of materials; please cite
         "P. Giannozzi et al., J. Phys.:Condens. Matter 21 395502 (2009);
         "P. Giannozzi et al., J. Phys.:Condens. Matter 29 465901 (2017);
         "P. Giannozzi et al., J. Chem. Phys. 152 154105 (2020);
          URL http://www.quantum-espresso.org", 
     in publications or presentations arising from this work. More details at
     http://www.quantum-espresso.org/quote

     Parallel version (MPI), running on    52 processors

     MPI processes distributed on     3 nodes
     K-points division:     npool     =      26
     R & G space division:  proc/nbgrp/npool/nimage =       2
     45064 MiB available memory on the printing compute node when the environment starts
 
     Reading input from in_files/si_ph_bench_poolsize_2_n_procs_52_0.scf

     Current dimensions of program PWSCF are:
     Max number of different atomic species (ntypx) = 10
     Max number of k-points (npk) =  40000
     Max angular momentum in pseudopotentials (lmaxx) =  4

     Subspace diagonalization in iterative solution of the eigenvalue problem:
     a serial algorithm will be used

 
     Parallelization info
     --------------------
     sticks:   dense  smooth     PW     G-vecs:    dense   smooth      PW
     Min         501     501    150                10436    10436    1738
     Max         502     502    151                10439    10439    1741
     Sum        1003    1003    301                20875    20875    3479
 
     Using Slab Decomposition
 


     bravais-lattice index     =            2
     lattice parameter (alat)  =      10.1899  a.u.
     unit-cell volume          =     264.5151 (a.u.)^3
     number of atoms/cell      =            2
     number of atomic types    =            1
     number of electrons       =         8.00
     number of Kohn-Sham states=            4
     kinetic-energy cutoff     =      70.0000  Ry
     charge density cutoff     =     280.0000  Ry
     scf convergence threshold =      1.0E-10
     mixing beta               =       0.7000
     number of iterations used =            8  plain     mixing
     Exchange-correlation= SLA  PW   NOGX NOGC
                           (   1   4   0   0   0   0   0)

     celldm(1)=  10.189905  celldm(2)=   0.000000  celldm(3)=   0.000000
     celldm(4)=   0.000000  celldm(5)=   0.000000  celldm(6)=   0.000000

     crystal axes: (cart. coord. in units of alat)
               a(1) = (  -0.500000   0.000000   0.500000 )  
               a(2) = (   0.000000   0.500000   0.500000 )  
               a(3) = (  -0.500000   0.500000   0.000000 )  

     reciprocal axes: (cart. coord. in units 2 pi/alat)
               b(1) = ( -1.000000 -1.000000  1.000000 )  
               b(2) = (  1.000000  1.000000  1.000000 )  
               b(3) = ( -1.000000  1.000000 -1.000000 )  


     PseudoPot. # 1 for Si read from file:
     ./pseudos/Si.nc.UPF
     MD5 check sum: 9e2d726316af3d4752eea8ab0afbb951
     Pseudo is Norm-conserving + core correction, Zval =  4.0
     Generated using ONCVPSP code by D. R. Hamann
     Using radial grid of 1510 points,  6 beta functions with: 
                l(1) =   0
                l(2) =   0
                l(3) =   1
                l(4) =   1
                l(5) =   2
                l(6) =   2

     atomic species   valence    mass     pseudopotential
        Si             4.00    28.08550     Si( 1.00)

     48 Sym. Ops., with inversion, found (24 have fractional translation)



   Cartesian axes

     site n.     atom                  positions (alat units)
         1           Si  tau(   1) = (   0.0000000   0.0000000   0.0000000  )
         2           Si  tau(   2) = (  -0.2500000   0.2500000   0.2500000  )

     number of k points=    28
                       cart. coord. in units 2pi/alat
        k(    1) = (  -0.0833333   0.0833333   0.0833333), wk =   0.0185185
        k(    2) = (  -0.2500000   0.2500000  -0.0833333), wk =   0.0555556
        k(    3) = (  -0.4166667   0.4166667  -0.2500000), wk =   0.0555556
        k(    4) = (   0.4166667  -0.4166667   0.5833333), wk =   0.0555556
        k(    5) = (   0.2500000  -0.2500000   0.4166667), wk =   0.0555556
        k(    6) = (   0.0833333  -0.0833333   0.2500000), wk =   0.0555556
        k(    7) = (  -0.0833333   0.4166667   0.0833333), wk =   0.0555556
        k(    8) = (  -0.2500000   0.5833333  -0.0833333), wk =   0.1111111
        k(    9) = (   0.5833333  -0.2500000   0.7500000), wk =   0.1111111
        k(   10) = (   0.4166667  -0.0833333   0.5833333), wk =   0.1111111
        k(   11) = (   0.2500000   0.0833333   0.4166667), wk =   0.1111111
        k(   12) = (  -0.0833333   0.7500000   0.0833333), wk =   0.0555556
        k(   13) = (   0.7500000  -0.0833333   0.9166667), wk =   0.1111111
        k(   14) = (   0.5833333   0.0833333   0.7500000), wk =   0.1111111
        k(   15) = (   0.4166667   0.2500000   0.5833333), wk =   0.1111111
        k(   16) = (  -0.0833333  -0.9166667   0.0833333), wk =   0.0555556
        k(   17) = (  -0.2500000  -0.7500000  -0.0833333), wk =   0.1111111
        k(   18) = (  -0.0833333  -0.5833333   0.0833333), wk =   0.0555556
        k(   19) = (  -0.2500000   0.2500000   0.2500000), wk =   0.0185185
        k(   20) = (  -0.4166667   0.4166667   0.0833333), wk =   0.0555556
        k(   21) = (   0.4166667  -0.4166667   0.9166667), wk =   0.0555556
        k(   22) = (   0.2500000  -0.2500000   0.7500000), wk =   0.0555556
        k(   23) = (  -0.2500000   0.5833333   0.2500000), wk =   0.0555556
        k(   24) = (   0.5833333  -0.2500000   1.0833333), wk =   0.1111111
        k(   25) = (   0.4166667  -0.0833333   0.9166667), wk =   0.1111111
        k(   26) = (  -0.2500000  -1.0833333   0.2500000), wk =   0.0555556
        k(   27) = (  -0.4166667   0.4166667   0.4166667), wk =   0.0185185
        k(   28) = (   0.4166667  -0.4166667   1.2500000), wk =   0.0555556

     Dense  grid:    20875 G-vectors     FFT dimensions: (  40,  40,  40)

     Estimated max dynamical RAM per process >       9.16 MB

     Estimated total dynamical RAM >     349.08 MB

     Initial potential from superposition of free atoms

     starting charge       7.9989, renormalised to       8.0000
     Starting wfcs are    8 randomized atomic wfcs

     total cpu time spent up to now is        0.2 secs

     Self-consistent Calculation

     iteration #  1     ecut=    70.00 Ry     beta= 0.70
     Davidson diagonalization with overlap
     ethr =  1.00E-02,  avg # of iterations =  2.0

     Threshold (ethr) on eigenvalues was too large:
     Diagonalizing with lowered threshold

     Davidson diagonalization with overlap
     ethr =  6.11E-04,  avg # of iterations =  2.0

     total cpu time spent up to now is        0.3 secs

     total energy              =     -17.04761637 Ry
     estimated scf accuracy    <       0.05798531 Ry

     iteration #  2     ecut=    70.00 Ry     beta= 0.70
     Davidson diagonalization with overlap
     ethr =  7.25E-04,  avg # of iterations =  1.0

     total cpu time spent up to now is        0.3 secs

     total energy              =     -17.04993742 Ry
     estimated scf accuracy    <       0.00250736 Ry

     iteration #  3     ecut=    70.00 Ry     beta= 0.70
     Davidson diagonalization with overlap
     ethr =  3.13E-05,  avg # of iterations =  3.0

     total cpu time spent up to now is        0.4 secs

     total energy              =     -17.05082336 Ry
     estimated scf accuracy    <       0.00009652 Ry

     iteration #  4     ecut=    70.00 Ry     beta= 0.70
     Davidson diagonalization with overlap
     ethr =  1.21E-06,  avg # of iterations =  4.3

     total cpu time spent up to now is        0.4 secs

     total energy              =     -17.05089782 Ry
     estimated scf accuracy    <       0.00000284 Ry

     iteration #  5     ecut=    70.00 Ry     beta= 0.70
     Davidson diagonalization with overlap
     ethr =  3.55E-08,  avg # of iterations =  4.9

     total cpu time spent up to now is        0.5 secs

     total energy              =     -17.05090099 Ry
     estimated scf accuracy    <       0.00000019 Ry

     iteration #  6     ecut=    70.00 Ry     beta= 0.70
     Davidson diagonalization with overlap
     ethr =  2.35E-09,  avg # of iterations =  3.3

     total cpu time spent up to now is        0.5 secs

     total energy              =     -17.05090106 Ry
     estimated scf accuracy    <       0.00000002 Ry

     iteration #  7     ecut=    70.00 Ry     beta= 0.70
     Davidson diagonalization with overlap
     ethr =  2.71E-10,  avg # of iterations =  2.9

     total cpu time spent up to now is        0.6 secs

     End of self-consistent calculation

          k =-0.0833 0.0833 0.0833 (  2667 PWs)   bands (ev):

    -5.7561   5.3866   6.1106   6.1106

          k =-0.2500 0.2500-0.0833 (  2621 PWs)   bands (ev):

    -5.2692   3.2787   4.8359   5.9020

          k =-0.4167 0.4167-0.2500 (  2618 PWs)   bands (ev):

    -4.1491   0.4558   4.3704   5.2525

          k = 0.4167-0.4167 0.5833 (  2604 PWs)   bands (ev):

    -3.4239  -0.7235   4.4440   4.8611

          k = 0.2500-0.2500 0.4167 (  2618 PWs)   bands (ev):

    -4.5725   1.3222   4.9163   4.9543

          k = 0.0833-0.0833 0.2500 (  2643 PWs)   bands (ev):

    -5.5104   4.3092   5.4447   5.6431

          k =-0.0833 0.4167 0.0833 (  2627 PWs)   bands (ev):

    -5.0231   3.1094   4.6844   4.6977

          k =-0.2500 0.5833-0.0833 (  2613 PWs)   bands (ev):

    -4.0918   1.2428   3.3199   4.3008

          k = 0.5833-0.2500 0.7500 (  2616 PWs)   bands (ev):

    -2.9383  -0.5645   2.7090   4.0651

          k = 0.4167-0.0833 0.5833 (  2617 PWs)   bands (ev):

    -3.6856   0.5301   2.6549   4.5685

          k = 0.2500 0.0833 0.4167 (  2624 PWs)   bands (ev):

    -4.7922   2.2460   4.0374   5.2604

          k =-0.0833 0.7500 0.0833 (  2617 PWs)   bands (ev):

    -3.3665   0.4197   3.2861   3.6484

          k = 0.7500-0.0833 0.9167 (  2608 PWs)   bands (ev):

    -2.1400  -0.9430   2.4039   3.2177

          k = 0.5833 0.0833 0.7500 (  2608 PWs)   bands (ev):

    -2.5099  -0.6178   1.9049   3.7798

          k = 0.4167 0.2500 0.5833 (  2622 PWs)   bands (ev):

    -3.5664  -0.1967   3.6417   4.6730

          k =-0.0833-0.9167 0.0833 (  2604 PWs)   bands (ev):

    -2.2385  -0.9535   3.0091   3.4290

          k =-0.2500-0.7500-0.0833 (  2615 PWs)   bands (ev):

    -3.1914   0.1893   2.7413   3.5675

          k =-0.0833-0.5833 0.0833 (  2620 PWs)   bands (ev):

    -4.3033   1.8031   3.8479   4.0788

          k =-0.2500 0.2500 0.2500 (  2632 PWs)   bands (ev):

    -5.0343   2.2731   5.4857   5.4857

          k =-0.4167 0.4167 0.0833 (  2620 PWs)   bands (ev):

    -4.3392   1.3430   3.2813   5.3165

          k = 0.4167-0.4167 0.9167 (  2613 PWs)   bands (ev):

    -3.1274  -0.1140   2.1362   4.5076

          k = 0.2500-0.2500 0.7500 (  2618 PWs)   bands (ev):

    -3.0761  -0.1941   2.6355   4.0115

          k =-0.2500 0.5833 0.2500 (  2613 PWs)   bands (ev):

    -3.9042   0.5133   3.7736   4.3933

          k = 0.5833-0.2500 1.0833 (  2619 PWs)   bands (ev):

    -2.8765  -0.2149   2.2381   3.5572

          k = 0.4167-0.0833 0.9167 (  2613 PWs)   bands (ev):

    -2.0245  -0.9506   2.0592   2.8637

          k =-0.2500-1.0833 0.2500 (  2605 PWs)   bands (ev):

    -2.2385  -0.8649   1.9289   3.8127

          k =-0.4167 0.4167 0.4167 (  2602 PWs)   bands (ev):

    -3.8074  -0.3119   5.0941   5.0941

          k = 0.4167-0.4167 1.2500 (  2605 PWs)   bands (ev):

    -3.1840  -0.6106   3.2018   4.6388

     highest occupied level (ev):     6.1106

!    total energy              =     -17.05090107 Ry
     estimated scf accuracy    <          1.4E-11 Ry

     The total energy is the sum of the following terms:
     one-electron contribution =       5.01080423 Ry
     hartree contribution      =       1.07710780 Ry
     xc contribution           =      -6.22231182 Ry
     ewald contribution        =     -16.91650128 Ry

     convergence has been achieved in   7 iterations

     Forces acting on atoms (cartesian axes, Ry/au):

     atom    1 type  1   force =     0.00000000    0.00000000    0.00000000
     atom    2 type  1   force =     0.00000000    0.00000000    0.00000000

     Total force =     0.000000     Total SCF correction =     0.000000

     Writing all to output data dir /fastscratch/tsievers/QE_TMP_DIR/si_ph_bench_poolsize_2_n_procs_52_0.save/
 
     init_run     :      0.14s CPU      0.14s WALL (       1 calls)
     electrons    :      0.36s CPU      0.39s WALL (       1 calls)
     forces       :      0.02s CPU      0.02s WALL (       1 calls)

     Called by init_run:
     wfcinit      :      0.01s CPU      0.02s WALL (       1 calls)
     potinit      :      0.04s CPU      0.04s WALL (       1 calls)
     hinit0       :      0.02s CPU      0.03s WALL (       1 calls)

     Called by electrons:
     c_bands      :      0.25s CPU      0.25s WALL (       8 calls)
     sum_band     :      0.06s CPU      0.06s WALL (       8 calls)
     v_of_rho     :      0.03s CPU      0.03s WALL (       8 calls)
     mix_rho      :      0.01s CPU      0.01s WALL (       8 calls)

     Called by c_bands:
     init_us_2    :      0.02s CPU      0.02s WALL (      36 calls)
     init_us_2:cp :      0.02s CPU      0.02s WALL (      36 calls)
     cegterg      :      0.17s CPU      0.17s WALL (      16 calls)

     Called by *egterg:
     cdiaghg      :      0.00s CPU      0.00s WALL (      70 calls)
     h_psi        :      0.16s CPU      0.17s WALL (      74 calls)
     g_psi        :      0.00s CPU      0.00s WALL (      56 calls)

     Called by h_psi:
     h_psi:calbec :      0.01s CPU      0.01s WALL (      74 calls)
     vloc_psi     :      0.14s CPU      0.14s WALL (      74 calls)
     add_vuspsi   :      0.01s CPU      0.01s WALL (      74 calls)

     General routines
     calbec       :      0.01s CPU      0.01s WALL (      82 calls)
     fft          :      0.01s CPU      0.02s WALL (      28 calls)
     ffts         :      0.00s CPU      0.00s WALL (       8 calls)
     fftw         :      0.14s CPU      0.14s WALL (     528 calls)
 
     Parallel routines
 
     PWSCF        :      0.57s CPU      0.97s WALL

 
   This run was terminated on:  18:56:52  17May2022            

=------------------------------------------------------------------------------=
   JOB DONE.
=------------------------------------------------------------------------------=

     Program PHONON v.7.0 starts on 17May2022 at 18:56:56 

     This program is part of the open-source Quantum ESPRESSO suite
     for quantum simulation of materials; please cite
         "P. Giannozzi et al., J. Phys.:Condens. Matter 21 395502 (2009);
         "P. Giannozzi et al., J. Phys.:Condens. Matter 29 465901 (2017);
         "P. Giannozzi et al., J. Chem. Phys. 152 154105 (2020);
          URL http://www.quantum-espresso.org", 
     in publications or presentations arising from this work. More details at
     http://www.quantum-espresso.org/quote

     Parallel version (MPI), running on    52 processors

     MPI processes distributed on     3 nodes
     K-points division:     npool     =      26
     R & G space division:  proc/nbgrp/npool/nimage =       2
     45068 MiB available memory on the printing compute node when the environment starts
 
     Reading input from in_files/si_ph_bench_poolsize_2_n_procs_52_0.ph
      Title line not specified: using 'default'.

     Reading xml data from directory:

     /fastscratch/tsievers/QE_TMP_DIR/si_ph_bench_poolsize_2_n_procs_52_0.save/

     IMPORTANT: XC functional enforced from input :
     Exchange-correlation= PW
                           (   1   4   0   0   0   0   0)
     Any further DFT definition will be discarded
     Please, verify this is what you really want

 
     Parallelization info
     --------------------
     sticks:   dense  smooth     PW     G-vecs:    dense   smooth      PW
     Min         501     501    150                10436    10436    1738
     Max         502     502    151                10439    10439    1741
     Sum        1003    1003    301                20875    20875    3479
 
     Using Slab Decomposition
 
     Reading collected, re-writing distributed wavefunctions


     Dynamical matrices for ( 6, 6, 6)  uniform grid of q-points
     (  16 q-points):
       N         xq(1)         xq(2)         xq(3) 
       1   0.000000000   0.000000000   0.000000000
       2  -0.166666667   0.166666667  -0.166666667
       3  -0.333333333   0.333333333  -0.333333333
       4   0.500000000  -0.500000000   0.500000000
       5   0.000000000   0.333333333   0.000000000
       6  -0.166666667   0.500000000  -0.166666667
       7   0.666666667  -0.333333333   0.666666667
       8   0.500000000  -0.166666667   0.500000000
       9   0.333333333   0.000000000   0.333333333
      10   0.000000000   0.666666667   0.000000000
      11   0.833333333  -0.166666667   0.833333333
      12   0.666666667  -0.000000000   0.666666667
      13   0.000000000  -1.000000000   0.000000000
      14   0.666666667  -0.333333333   1.000000000
      15   0.500000000  -0.166666667   0.833333333
      16  -0.333333333  -1.000000000   0.000000000

     Calculation of q =    0.0000000   0.0000000   0.0000000

     default                                                                    

     bravais-lattice index     =            2
     lattice parameter (alat)  =      10.1899  a.u.
     unit-cell volume          =     264.5151 (a.u.)^3
     number of atoms/cell      =            2
     number of atomic types    =            1
     kinetic-energy cut-off    =      70.0000  Ry
     charge density cut-off    =     280.0000  Ry
     convergence threshold     =      1.0E-15
     beta                      =       0.7000
     number of iterations used =            4
     Exchange-correlation= PW
                           (   1   4   0   0   0   0   0)


     celldm(1)=   10.18990  celldm(2)=    0.00000  celldm(3)=    0.00000
     celldm(4)=    0.00000  celldm(5)=    0.00000  celldm(6)=    0.00000

     crystal axes: (cart. coord. in units of alat)
               a(1) = ( -0.5000  0.0000  0.5000 )  
               a(2) = (  0.0000  0.5000  0.5000 )  
               a(3) = ( -0.5000  0.5000  0.0000 )  

     reciprocal axes: (cart. coord. in units 2 pi/alat)
               b(1) = ( -1.0000 -1.0000  1.0000 )  
               b(2) = (  1.0000  1.0000  1.0000 )  
               b(3) = ( -1.0000  1.0000 -1.0000 )  


     Atoms inside the unit cell: 

     Cartesian axes

     site n.  atom      mass           positions (alat units)
        1     Si  28.0855   tau(    1) = (    0.00000    0.00000    0.00000  )
        2     Si  28.0855   tau(    2) = (   -0.25000    0.25000    0.25000  )

     Computing dynamical matrix for 
                    q = (   0.0000000   0.0000000   0.0000000 )
 
     49 Sym.Ops. (with q -> -q+G )


     G cutoff =  736.4420  (  10439 G-vectors)     FFT grid: ( 40, 40, 40)
     number of k points=    28

     PseudoPot. # 1 for Si read from file:
     ./pseudos/Si.nc.UPF
     MD5 check sum: 9e2d726316af3d4752eea8ab0afbb951
     Pseudo is Norm-conserving + core correction, Zval =  4.0
     Generated using ONCVPSP code by D. R. Hamann
     Using radial grid of 1510 points,  6 beta functions with: 
                l(1) =   0
                l(2) =   0
                l(3) =   1
                l(4) =   1
                l(5) =   2
                l(6) =   2

     Mode symmetry, O_h (m-3m)  point group:


     Electric field:
     Dielectric constant
     Born effective charges in two ways 


     Atomic displacements:
     There are    2 irreducible representations

     Representation     1      3 modes -  To be done

     Representation     2      3 modes -  To be done



     Alpha used in Ewald sum =   2.8000
     PHONON       :      0.63s CPU      4.60s WALL


     Electric Fields Calculation

      iter #   1 total cpu time :     6.2 secs   av.it.:   6.5
      thresh= 1.000E-02 alpha_mix =  0.700 |ddv_scf|^2 =  1.151E-07

      iter #   2 total cpu time :    10.5 secs   av.it.:  11.6
      thresh= 3.392E-05 alpha_mix =  0.700 |ddv_scf|^2 =  4.931E-09

      iter #   3 total cpu time :    13.4 secs   av.it.:  11.5
      thresh= 7.022E-06 alpha_mix =  0.700 |ddv_scf|^2 =  5.558E-11

      iter #   4 total cpu time :    16.2 secs   av.it.:  11.8
      thresh= 7.455E-07 alpha_mix =  0.700 |ddv_scf|^2 =  3.297E-13

      iter #   5 total cpu time :    18.3 secs   av.it.:  10.8
      thresh= 5.742E-08 alpha_mix =  0.700 |ddv_scf|^2 =  1.210E-16

     End of electric fields calculation

          Dielectric constant in cartesian axis 

          (      13.312021539       0.000000000       0.000000000 )
          (      -0.000000000      13.312021539      -0.000000000 )
          (       0.000000000      -0.000000000      13.312021539 )

          Effective charges (d Force / dE) in cartesian axis without acoustic sum rule applied (asr)

           atom      1   Si Mean Z*:       -0.00676
      Ex  (       -0.00676        0.00000       -0.00000 )
      Ey  (        0.00000       -0.00676        0.00000 )
      Ez  (       -0.00000       -0.00000       -0.00676 )
           atom      2   Si Mean Z*:       -0.00676
      Ex  (       -0.00676        0.00000       -0.00000 )
      Ey  (        0.00000       -0.00676       -0.00000 )
      Ez  (        0.00000       -0.00000       -0.00676 )

          Effective charges Sum: Mean:       -0.01352
             -0.01352        0.00000       -0.00000
              0.00000       -0.01352       -0.00000
             -0.00000       -0.00000       -0.01352

          Effective charges (d Force / dE) in cartesian axis with asr applied: 
           atom      1   Si Mean Z*:       -0.00000
      E*x (       -0.00000       -0.00000       -0.00000 )
      E*y (       -0.00000       -0.00000        0.00000 )
      E*z (       -0.00000        0.00000       -0.00000 )
           atom      2   Si Mean Z*:        0.00000
      E*x (        0.00000        0.00000        0.00000 )
      E*y (        0.00000        0.00000       -0.00000 )
      E*z (        0.00000       -0.00000        0.00000 )


     Representation #   1 modes #   1   2   3

     Self-consistent Calculation

      iter #   1 total cpu time :    19.6 secs   av.it.:   5.8
      thresh= 1.000E-02 alpha_mix =  0.700 |ddv_scf|^2 =  1.659E-08

      iter #   2 total cpu time :    22.9 secs   av.it.:  11.6
      thresh= 1.288E-05 alpha_mix =  0.700 |ddv_scf|^2 =  3.727E-10

      iter #   3 total cpu time :    25.6 secs   av.it.:  11.6
      thresh= 1.931E-06 alpha_mix =  0.700 |ddv_scf|^2 =  1.391E-11

      iter #   4 total cpu time :    29.4 secs   av.it.:  11.4
      thresh= 3.730E-07 alpha_mix =  0.700 |ddv_scf|^2 =  4.505E-14

      iter #   5 total cpu time :    30.5 secs   av.it.:  11.8
      thresh= 2.123E-08 alpha_mix =  0.700 |ddv_scf|^2 =  2.091E-16

     End of self-consistent calculation

     Convergence has been achieved 


     Representation #   2 modes #   4   5   6

     Self-consistent Calculation

      iter #   1 total cpu time :    36.8 secs   av.it.:   6.0
      thresh= 1.000E-02 alpha_mix =  0.700 |ddv_scf|^2 =  1.197E-08

      iter #   2 total cpu time :    40.1 secs   av.it.:  11.8
      thresh= 1.094E-05 alpha_mix =  0.700 |ddv_scf|^2 =  4.304E-10

      iter #   3 total cpu time :    43.4 secs   av.it.:  11.8
      thresh= 2.075E-06 alpha_mix =  0.700 |ddv_scf|^2 =  1.959E-11

      iter #   4 total cpu time :    47.1 secs   av.it.:  11.7
      thresh= 4.427E-07 alpha_mix =  0.700 |ddv_scf|^2 =  3.509E-14

      iter #   5 total cpu time :    48.0 secs   av.it.:  11.8
      thresh= 1.873E-08 alpha_mix =  0.700 |ddv_scf|^2 =  9.519E-17

     End of self-consistent calculation

     Convergence has been achieved 
 
     Number of q in the star =    1
     List of q in the star:
          1   0.000000000   0.000000000   0.000000000

          Dielectric constant in cartesian axis 

          (      13.312021539       0.000000000       0.000000000 )
          (      -0.000000000      13.312021539      -0.000000000 )
          (       0.000000000      -0.000000000      13.312021539 )

          Effective charges (d Force / dE) in cartesian axis without acoustic sum rule applied (asr)

           atom      1   Si Mean Z*:       -0.00676
      Ex  (       -0.00676        0.00000       -0.00000 )
      Ey  (        0.00000       -0.00676        0.00000 )
      Ez  (       -0.00000       -0.00000       -0.00676 )
           atom      2   Si Mean Z*:       -0.00676
      Ex  (       -0.00676        0.00000       -0.00000 )
      Ey  (        0.00000       -0.00676       -0.00000 )
      Ez  (        0.00000       -0.00000       -0.00676 )

          Effective charges Sum: Mean:       -0.01352
             -0.01352        0.00000       -0.00000
              0.00000       -0.01352       -0.00000
             -0.00000       -0.00000       -0.01352

          Effective charges (d Force / dE) in cartesian axis with asr applied: 
           atom      1   Si Mean Z*:       -0.00000
      E*x (       -0.00000       -0.00000       -0.00000 )
      E*y (       -0.00000       -0.00000        0.00000 )
      E*z (       -0.00000        0.00000       -0.00000 )
           atom      2   Si Mean Z*:        0.00000
      E*x (        0.00000        0.00000        0.00000 )
      E*y (        0.00000        0.00000       -0.00000 )
      E*z (        0.00000       -0.00000        0.00000 )

          Effective charges (d P / du) in cartesian axis 

           atom      1   Si 
      Px  (       -0.00683        0.00000        0.00000 )
      Py  (        0.00000       -0.00683       -0.00000 )
      Pz  (        0.00000       -0.00000       -0.00683 )
           atom      2   Si 
      Px  (       -0.00683        0.00000       -0.00000 )
      Py  (        0.00000       -0.00683       -0.00000 )
      Pz  (       -0.00000       -0.00000       -0.00683 )

     Diagonalizing the dynamical matrix

     q = (    0.000000000   0.000000000   0.000000000 ) 

 **************************************************************************
     freq (    1) =      -0.111639 [THz] =      -3.723880 [cm-1]
     freq (    2) =      -0.111639 [THz] =      -3.723880 [cm-1]
     freq (    3) =      -0.111639 [THz] =      -3.723880 [cm-1]
     freq (    4) =      15.412131 [THz] =     514.093369 [cm-1]
     freq (    5) =      15.412131 [THz] =     514.093369 [cm-1]
     freq (    6) =      15.412131 [THz] =     514.093369 [cm-1]
 **************************************************************************

     Mode symmetry, O_h (m-3m)  point group:

     freq (   1-   3) =         -3.7  [cm-1]   --> T_1u G_15  G_4- I  
     freq (   4-   6) =        514.1  [cm-1]   --> T_2g G_25' G_5+ R  

     Calculation of q =   -0.1666667   0.1666667  -0.1666667

     Subspace diagonalization in iterative solution of the eigenvalue problem:
     a serial algorithm will be used

 
     Parallelization info
     --------------------
     sticks:   dense  smooth     PW     G-vecs:    dense   smooth      PW
     Min         501     501    156                10436    10436    1847
     Max         502     502    157                10439    10439    1848
     Sum        1003    1003    313                20875    20875    3695
 
     Using Slab Decomposition
 

     Title: 
     default                                                                    


     bravais-lattice index     =            2
     lattice parameter (alat)  =      10.1899  a.u.
     unit-cell volume          =     264.5151 (a.u.)^3
     number of atoms/cell      =            2
     number of atomic types    =            1
     number of electrons       =         8.00
     number of Kohn-Sham states=            4
     kinetic-energy cutoff     =      70.0000  Ry
     charge density cutoff     =     280.0000  Ry
     Exchange-correlation= PW
                           (   1   4   0   0   0   0   0)

     celldm(1)=  10.189905  celldm(2)=   0.000000  celldm(3)=   0.000000
     celldm(4)=   0.000000  celldm(5)=   0.000000  celldm(6)=   0.000000

     crystal axes: (cart. coord. in units of alat)
               a(1) = (  -0.500000   0.000000   0.500000 )  
               a(2) = (   0.000000   0.500000   0.500000 )  
               a(3) = (  -0.500000   0.500000   0.000000 )  

     reciprocal axes: (cart. coord. in units 2 pi/alat)
               b(1) = ( -1.000000 -1.000000  1.000000 )  
               b(2) = (  1.000000  1.000000  1.000000 )  
               b(3) = ( -1.000000  1.000000 -1.000000 )  


     PseudoPot. # 1 for Si read from file:
     ./pseudos/Si.nc.UPF
     MD5 check sum: 9e2d726316af3d4752eea8ab0afbb951
     Pseudo is Norm-conserving + core correction, Zval =  4.0
     Generated using ONCVPSP code by D. R. Hamann
     Using radial grid of 1510 points,  6 beta functions with: 
                l(1) =   0
                l(2) =   0
                l(3) =   1
                l(4) =   1
                l(5) =   2
                l(6) =   2

     atomic species   valence    mass     pseudopotential
        Si             4.00    28.08550     Si( 1.00)

     48 Sym. Ops., with inversion, found



   Cartesian axes

     site n.     atom                  positions (alat units)
         1           Si  tau(   1) = (   0.0000000   0.0000000   0.0000000  )
         2           Si  tau(   2) = (  -0.2500000   0.2500000   0.2500000  )

     number of k points=   364

     Number of k-points >= 100: set verbosity='high' to print them.

     Dense  grid:    20875 G-vectors     FFT dimensions: (  40,  40,  40)

     Estimated max dynamical RAM per process >       6.40 MB

     Estimated total dynamical RAM >     332.62 MB

     The potential is recalculated from file :
     /fastscratch/tsievers/QE_TMP_DIR/_ph0/si_ph_bench_poolsize_2_n_procs_52_0.save/charge-density

     Starting wfcs are    8 atomic wfcs

     Band Structure Calculation
     Davidson diagonalization with overlap

     ethr =  1.25E-10,  avg # of iterations = 12.9

     total cpu time spent up to now is        0.9 secs

     End of band structure calculation

     Number of k-points >= 100: set verbosity='high' to print the bands.

     highest occupied level (ev):     6.1106

     Writing config to output data dir /fastscratch/tsievers/QE_TMP_DIR/_ph0/si_ph_bench_poolsize_2_n_procs_52_0.save/

     default                                                                    

     bravais-lattice index     =            2
     lattice parameter (alat)  =      10.1899  a.u.
     unit-cell volume          =     264.5151 (a.u.)^3
     number of atoms/cell      =            2
     number of atomic types    =            1
     kinetic-energy cut-off    =      70.0000  Ry
     charge density cut-off    =     280.0000  Ry
     convergence threshold     =      1.0E-15
     beta                      =       0.7000
     number of iterations used =            4
     Exchange-correlation= PW
                           (   1   4   0   0   0   0   0)


     celldm(1)=   10.18990  celldm(2)=    0.00000  celldm(3)=    0.00000
     celldm(4)=    0.00000  celldm(5)=    0.00000  celldm(6)=    0.00000

     crystal axes: (cart. coord. in units of alat)
               a(1) = ( -0.5000  0.0000  0.5000 )  
               a(2) = (  0.0000  0.5000  0.5000 )  
               a(3) = ( -0.5000  0.5000  0.0000 )  

     reciprocal axes: (cart. coord. in units 2 pi/alat)
               b(1) = ( -1.0000 -1.0000  1.0000 )  
               b(2) = (  1.0000  1.0000  1.0000 )  
               b(3) = ( -1.0000  1.0000 -1.0000 )  


     Atoms inside the unit cell: 

     Cartesian axes

     site n.  atom      mass           positions (alat units)
        1     Si  28.0855   tau(    1) = (    0.00000    0.00000    0.00000  )
        2     Si  28.0855   tau(    2) = (   -0.25000    0.25000    0.25000  )

     Computing dynamical matrix for 
                    q = (  -0.1666667   0.1666667  -0.1666667 )
 
      6 Sym.Ops. (no q -> -q+G )


     G cutoff =  736.4420  (  10439 G-vectors)     FFT grid: ( 40, 40, 40)
     number of k points=   364

     PseudoPot. # 1 for Si read from file:
     ./pseudos/Si.nc.UPF
     MD5 check sum: 9e2d726316af3d4752eea8ab0afbb951
     Pseudo is Norm-conserving + core correction, Zval =  4.0
     Generated using ONCVPSP code by D. R. Hamann
     Using radial grid of 1510 points,  6 beta functions with: 
                l(1) =   0
                l(2) =   0
                l(3) =   1
                l(4) =   1
                l(5) =   2
                l(6) =   2

     Mode symmetry, C_3v (3m)   point group:


     Atomic displacements:
     There are    4 irreducible representations

     Representation     1      1 modes -  To be done

     Representation     2      1 modes -  To be done

     Representation     3      2 modes -  To be done

     Representation     4      2 modes -  To be done



     Alpha used in Ewald sum =   2.8000
     PHONON       :     21.90s CPU     52.21s WALL



     Representation #   1 mode #   1

     Self-consistent Calculation

      iter #   1 total cpu time :    52.7 secs   av.it.:   6.6
      thresh= 1.000E-02 alpha_mix =  0.700 |ddv_scf|^2 =  1.552E-03

      iter #   2 total cpu time :    53.8 secs   av.it.:   8.8
      thresh= 3.939E-03 alpha_mix =  0.700 |ddv_scf|^2 =  5.085E-02

      iter #   3 total cpu time :    54.8 secs   av.it.:   7.6
      thresh= 1.000E-02 alpha_mix =  0.700 |ddv_scf|^2 =  4.138E-07

      iter #   4 total cpu time :    56.5 secs   av.it.:   9.1
      thresh= 6.433E-05 alpha_mix =  0.700 |ddv_scf|^2 =  1.356E-08

      iter #   5 total cpu time :    57.8 secs   av.it.:   9.4
      thresh= 1.164E-05 alpha_mix =  0.700 |ddv_scf|^2 =  8.949E-10

      iter #   6 total cpu time :    58.6 secs   av.it.:   8.3
      thresh= 2.992E-06 alpha_mix =  0.700 |ddv_scf|^2 =  1.602E-09

      iter #   7 total cpu time :    59.4 secs   av.it.:   7.9
      thresh= 4.002E-06 alpha_mix =  0.700 |ddv_scf|^2 =  9.340E-11

      iter #   8 total cpu time :    60.8 secs   av.it.:   8.4
      thresh= 9.665E-07 alpha_mix =  0.700 |ddv_scf|^2 =  7.505E-13

      iter #   9 total cpu time :    62.6 secs   av.it.:   8.2
      thresh= 8.663E-08 alpha_mix =  0.700 |ddv_scf|^2 =  1.676E-14

      iter #  10 total cpu time :    63.8 secs   av.it.:   8.5
      thresh= 1.295E-08 alpha_mix =  0.700 |ddv_scf|^2 =  1.568E-15

      iter #  11 total cpu time :    65.3 secs   av.it.:   9.0
      thresh= 3.959E-09 alpha_mix =  0.700 |ddv_scf|^2 =  2.333E-16

     End of self-consistent calculation

     Convergence has been achieved 


     Representation #   2 mode #   2

     Self-consistent Calculation

      iter #   1 total cpu time :    66.8 secs   av.it.:   6.6
      thresh= 1.000E-02 alpha_mix =  0.700 |ddv_scf|^2 =  1.552E-03

      iter #   2 total cpu time :    67.7 secs   av.it.:   8.8
      thresh= 3.939E-03 alpha_mix =  0.700 |ddv_scf|^2 =  5.085E-02

      iter #   3 total cpu time :    68.6 secs   av.it.:   7.6
      thresh= 1.000E-02 alpha_mix =  0.700 |ddv_scf|^2 =  4.138E-07

      iter #   4 total cpu time :    69.9 secs   av.it.:   9.1
      thresh= 6.433E-05 alpha_mix =  0.700 |ddv_scf|^2 =  1.356E-08

      iter #   5 total cpu time :    70.7 secs   av.it.:   9.4
      thresh= 1.164E-05 alpha_mix =  0.700 |ddv_scf|^2 =  8.949E-10

      iter #   6 total cpu time :    71.5 secs   av.it.:   8.3
      thresh= 2.992E-06 alpha_mix =  0.700 |ddv_scf|^2 =  1.602E-09

      iter #   7 total cpu time :    73.3 secs   av.it.:   7.9
      thresh= 4.003E-06 alpha_mix =  0.700 |ddv_scf|^2 =  9.340E-11

      iter #   8 total cpu time :    74.8 secs   av.it.:   8.4
      thresh= 9.664E-07 alpha_mix =  0.700 |ddv_scf|^2 =  7.505E-13

      iter #   9 total cpu time :    75.9 secs   av.it.:   8.2
      thresh= 8.663E-08 alpha_mix =  0.700 |ddv_scf|^2 =  1.676E-14

      iter #  10 total cpu time :    76.8 secs   av.it.:   8.5
      thresh= 1.295E-08 alpha_mix =  0.700 |ddv_scf|^2 =  1.567E-15

      iter #  11 total cpu time :    77.5 secs   av.it.:   9.0
      thresh= 3.959E-09 alpha_mix =  0.700 |ddv_scf|^2 =  2.332E-16

     End of self-consistent calculation

     Convergence has been achieved 


     Representation #   3 modes #   3   4

     Self-consistent Calculation

      iter #   1 total cpu time :    79.1 secs   av.it.:   6.1
      thresh= 1.000E-02 alpha_mix =  0.700 |ddv_scf|^2 =  4.048E-08

      iter #   2 total cpu time :    82.0 secs   av.it.:  11.4
      thresh= 2.012E-05 alpha_mix =  0.700 |ddv_scf|^2 =  1.801E-09

      iter #   3 total cpu time :    84.2 secs   av.it.:  11.3
      thresh= 4.244E-06 alpha_mix =  0.700 |ddv_scf|^2 =  4.704E-11

      iter #   4 total cpu time :    87.9 secs   av.it.:  11.3
      thresh= 6.859E-07 alpha_mix =  0.700 |ddv_scf|^2 =  5.427E-13

      iter #   5 total cpu time :    91.4 secs   av.it.:  11.3
      thresh= 7.367E-08 alpha_mix =  0.700 |ddv_scf|^2 =  1.152E-14

      iter #   6 total cpu time :    92.6 secs   av.it.:  11.6
      thresh= 1.073E-08 alpha_mix =  0.700 |ddv_scf|^2 =  5.232E-17

     End of self-consistent calculation

     Convergence has been achieved 


     Representation #   4 modes #   5   6

     Self-consistent Calculation

      iter #   1 total cpu time :    96.3 secs   av.it.:   6.0
      thresh= 1.000E-02 alpha_mix =  0.700 |ddv_scf|^2 =  4.048E-08

      iter #   2 total cpu time :    99.6 secs   av.it.:  11.3
      thresh= 2.012E-05 alpha_mix =  0.700 |ddv_scf|^2 =  1.802E-09

      iter #   3 total cpu time :   104.9 secs   av.it.:  11.3
      thresh= 4.245E-06 alpha_mix =  0.700 |ddv_scf|^2 =  4.704E-11

      iter #   4 total cpu time :   108.4 secs   av.it.:  11.3
      thresh= 6.859E-07 alpha_mix =  0.700 |ddv_scf|^2 =  5.429E-13

      iter #   5 total cpu time :   110.6 secs   av.it.:  11.3
      thresh= 7.368E-08 alpha_mix =  0.700 |ddv_scf|^2 =  1.153E-14

      iter #   6 total cpu time :   112.3 secs   av.it.:  11.6
      thresh= 1.074E-08 alpha_mix =  0.700 |ddv_scf|^2 =  5.227E-17

     End of self-consistent calculation

     Convergence has been achieved 
 
     Number of q in the star =    8
     List of q in the star:
          1  -0.166666667   0.166666667  -0.166666667
          2   0.166666667   0.166666667   0.166666667
          3  -0.166666667  -0.166666667  -0.166666667
          4   0.166666667  -0.166666667   0.166666667
          5   0.166666667  -0.166666667  -0.166666667
          6   0.166666667   0.166666667  -0.166666667
          7  -0.166666667  -0.166666667   0.166666667
          8  -0.166666667   0.166666667   0.166666667

     Diagonalizing the dynamical matrix

     q = (   -0.166666667   0.166666667  -0.166666667 ) 

 **************************************************************************
     freq (    1) =       2.202829 [THz] =      73.478459 [cm-1]
     freq (    2) =       2.202829 [THz] =      73.478459 [cm-1]
     freq (    3) =       4.748123 [THz] =     158.380334 [cm-1]
     freq (    4) =      15.023920 [THz] =     501.144026 [cm-1]
     freq (    5) =      15.065901 [THz] =     502.544365 [cm-1]
     freq (    6) =      15.065901 [THz] =     502.544365 [cm-1]
 **************************************************************************

     Mode symmetry, C_3v (3m)   point group:

     freq (   1-   2) =         73.5  [cm-1]   --> E    L_3           
     freq (   3-   3) =        158.4  [cm-1]   --> A_1  L_1           
     freq (   4-   4) =        501.1  [cm-1]   --> A_1  L_1           
     freq (   5-   6) =        502.5  [cm-1]   --> E    L_3           

     Calculation of q =   -0.3333333   0.3333333  -0.3333333
 
     Parallelization info
     --------------------
     sticks:   dense  smooth     PW     G-vecs:    dense   smooth      PW
     Min         501     501    156                10436    10436    1917
     Max         502     502    157                10439    10439    1922
     Sum        1003    1003    313                20875    20875    3839
 
     Using Slab Decomposition
 

     Title: 
     default                                                                    


     bravais-lattice index     =            2
     lattice parameter (alat)  =      10.1899  a.u.
     unit-cell volume          =     264.5151 (a.u.)^3
     number of atoms/cell      =            2
     number of atomic types    =            1
     number of electrons       =         8.00
     number of Kohn-Sham states=            4
     kinetic-energy cutoff     =      70.0000  Ry
     charge density cutoff     =     280.0000  Ry
     Exchange-correlation= PW
                           (   1   4   0   0   0   0   0)

     celldm(1)=  10.189905  celldm(2)=   0.000000  celldm(3)=   0.000000
     celldm(4)=   0.000000  celldm(5)=   0.000000  celldm(6)=   0.000000

     crystal axes: (cart. coord. in units of alat)
               a(1) = (  -0.500000   0.000000   0.500000 )  
               a(2) = (   0.000000   0.500000   0.500000 )  
               a(3) = (  -0.500000   0.500000   0.000000 )  

     reciprocal axes: (cart. coord. in units 2 pi/alat)
               b(1) = ( -1.000000 -1.000000  1.000000 )  
               b(2) = (  1.000000  1.000000  1.000000 )  
               b(3) = ( -1.000000  1.000000 -1.000000 )  


     PseudoPot. # 1 for Si read from file:
     ./pseudos/Si.nc.UPF
     MD5 check sum: 9e2d726316af3d4752eea8ab0afbb951
     Pseudo is Norm-conserving + core correction, Zval =  4.0
     Generated using ONCVPSP code by D. R. Hamann
     Using radial grid of 1510 points,  6 beta functions with: 
                l(1) =   0
                l(2) =   0
                l(3) =   1
                l(4) =   1
                l(5) =   2
                l(6) =   2

     atomic species   valence    mass     pseudopotential
        Si             4.00    28.08550     Si( 1.00)

     48 Sym. Ops., with inversion, found



   Cartesian axes

     site n.     atom                  positions (alat units)
         1           Si  tau(   1) = (   0.0000000   0.0000000   0.0000000  )
         2           Si  tau(   2) = (  -0.2500000   0.2500000   0.2500000  )

     number of k points=   364

     Number of k-points >= 100: set verbosity='high' to print them.

     Dense  grid:    20875 G-vectors     FFT dimensions: (  40,  40,  40)

     Estimated max dynamical RAM per process >       6.41 MB

     Estimated total dynamical RAM >     333.32 MB

     The potential is recalculated from file :
     /fastscratch/tsievers/QE_TMP_DIR/_ph0/si_ph_bench_poolsize_2_n_procs_52_0.save/charge-density

     Starting wfcs are    8 atomic wfcs

     Band Structure Calculation
     Davidson diagonalization with overlap

     ethr =  1.25E-10,  avg # of iterations = 12.9

     total cpu time spent up to now is        2.5 secs

     End of band structure calculation

     Number of k-points >= 100: set verbosity='high' to print the bands.

     highest occupied level (ev):     6.1106

     Writing config to output data dir /fastscratch/tsievers/QE_TMP_DIR/_ph0/si_ph_bench_poolsize_2_n_procs_52_0.save/

     default                                                                    

     bravais-lattice index     =            2
     lattice parameter (alat)  =      10.1899  a.u.
     unit-cell volume          =     264.5151 (a.u.)^3
     number of atoms/cell      =            2
     number of atomic types    =            1
     kinetic-energy cut-off    =      70.0000  Ry
     charge density cut-off    =     280.0000  Ry
     convergence threshold     =      1.0E-15
     beta                      =       0.7000
     number of iterations used =            4
     Exchange-correlation= PW
                           (   1   4   0   0   0   0   0)


     celldm(1)=   10.18990  celldm(2)=    0.00000  celldm(3)=    0.00000
     celldm(4)=    0.00000  celldm(5)=    0.00000  celldm(6)=    0.00000

     crystal axes: (cart. coord. in units of alat)
               a(1) = ( -0.5000  0.0000  0.5000 )  
               a(2) = (  0.0000  0.5000  0.5000 )  
               a(3) = ( -0.5000  0.5000  0.0000 )  

     reciprocal axes: (cart. coord. in units 2 pi/alat)
               b(1) = ( -1.0000 -1.0000  1.0000 )  
               b(2) = (  1.0000  1.0000  1.0000 )  
               b(3) = ( -1.0000  1.0000 -1.0000 )  


     Atoms inside the unit cell: 

     Cartesian axes

     site n.  atom      mass           positions (alat units)
        1     Si  28.0855   tau(    1) = (    0.00000    0.00000    0.00000  )
        2     Si  28.0855   tau(    2) = (   -0.25000    0.25000    0.25000  )

     Computing dynamical matrix for 
                    q = (  -0.3333333   0.3333333  -0.3333333 )
 
      6 Sym.Ops. (no q -> -q+G )


     G cutoff =  736.4420  (  10439 G-vectors)     FFT grid: ( 40, 40, 40)
     number of k points=   364

     PseudoPot. # 1 for Si read from file:
     ./pseudos/Si.nc.UPF
     MD5 check sum: 9e2d726316af3d4752eea8ab0afbb951
     Pseudo is Norm-conserving + core correction, Zval =  4.0
     Generated using ONCVPSP code by D. R. Hamann
     Using radial grid of 1510 points,  6 beta functions with: 
                l(1) =   0
                l(2) =   0
                l(3) =   1
                l(4) =   1
                l(5) =   2
                l(6) =   2

     Mode symmetry, C_3v (3m)   point group:


     Atomic displacements:
     There are    4 irreducible representations

     Representation     1      1 modes -  To be done

     Representation     2      1 modes -  To be done

     Representation     3      2 modes -  To be done

     Representation     4      2 modes -  To be done



     Alpha used in Ewald sum =   2.8000
     PHONON       :     57.82s CPU   1m56.42s WALL



     Representation #   1 mode #   1

     Self-consistent Calculation

      iter #   1 total cpu time :   116.9 secs   av.it.:   6.5
      thresh= 1.000E-02 alpha_mix =  0.700 |ddv_scf|^2 =  9.826E-05

      iter #   2 total cpu time :   117.9 secs   av.it.:   9.7
      thresh= 9.913E-04 alpha_mix =  0.700 |ddv_scf|^2 =  7.842E-04

      iter #   3 total cpu time :   118.7 secs   av.it.:   8.3
      thresh= 2.800E-03 alpha_mix =  0.700 |ddv_scf|^2 =  1.444E-07

      iter #   4 total cpu time :   120.0 secs   av.it.:   9.8
      thresh= 3.799E-05 alpha_mix =  0.700 |ddv_scf|^2 =  2.931E-09

      iter #   5 total cpu time :   121.4 secs   av.it.:   9.9
      thresh= 5.414E-06 alpha_mix =  0.700 |ddv_scf|^2 =  3.098E-11

      iter #   6 total cpu time :   123.4 secs   av.it.:  10.4
      thresh= 5.566E-07 alpha_mix =  0.700 |ddv_scf|^2 =  3.149E-12

      iter #   7 total cpu time :   126.3 secs   av.it.:  10.3
      thresh= 1.775E-07 alpha_mix =  0.700 |ddv_scf|^2 =  2.080E-12

      iter #   8 total cpu time :   127.9 secs   av.it.:   9.4
      thresh= 1.442E-07 alpha_mix =  0.700 |ddv_scf|^2 =  2.467E-12

      iter #   9 total cpu time :   129.2 secs   av.it.:   9.0
      thresh= 1.571E-07 alpha_mix =  0.700 |ddv_scf|^2 =  2.996E-13

      iter #  10 total cpu time :   130.2 secs   av.it.:   8.9
      thresh= 5.474E-08 alpha_mix =  0.700 |ddv_scf|^2 =  1.767E-15

      iter #  11 total cpu time :   130.7 secs   av.it.:   9.6
      thresh= 4.204E-09 alpha_mix =  0.700 |ddv_scf|^2 =  1.691E-16

     End of self-consistent calculation

     Convergence has been achieved 


     Representation #   2 mode #   2

     Self-consistent Calculation

      iter #   1 total cpu time :   131.6 secs   av.it.:   6.5
      thresh= 1.000E-02 alpha_mix =  0.700 |ddv_scf|^2 =  9.826E-05

      iter #   2 total cpu time :   133.2 secs   av.it.:   9.7
      thresh= 9.913E-04 alpha_mix =  0.700 |ddv_scf|^2 =  7.842E-04

      iter #   3 total cpu time :   134.2 secs   av.it.:   8.3
      thresh= 2.800E-03 alpha_mix =  0.700 |ddv_scf|^2 =  1.444E-07

      iter #   4 total cpu time :   135.3 secs   av.it.:   9.8
      thresh= 3.799E-05 alpha_mix =  0.700 |ddv_scf|^2 =  2.931E-09

      iter #   5 total cpu time :   136.1 secs   av.it.:   9.8
      thresh= 5.414E-06 alpha_mix =  0.700 |ddv_scf|^2 =  3.098E-11

      iter #   6 total cpu time :   137.5 secs   av.it.:  10.4
      thresh= 5.566E-07 alpha_mix =  0.700 |ddv_scf|^2 =  3.149E-12

      iter #   7 total cpu time :   139.5 secs   av.it.:  10.3
      thresh= 1.775E-07 alpha_mix =  0.700 |ddv_scf|^2 =  2.080E-12

      iter #   8 total cpu time :   140.9 secs   av.it.:   9.4
      thresh= 1.442E-07 alpha_mix =  0.700 |ddv_scf|^2 =  2.467E-12

      iter #   9 total cpu time :   142.2 secs   av.it.:   9.0
      thresh= 1.571E-07 alpha_mix =  0.700 |ddv_scf|^2 =  2.996E-13

      iter #  10 total cpu time :   143.2 secs   av.it.:   8.9
      thresh= 5.474E-08 alpha_mix =  0.700 |ddv_scf|^2 =  1.767E-15

      iter #  11 total cpu time :   143.6 secs   av.it.:   9.6
      thresh= 4.204E-09 alpha_mix =  0.700 |ddv_scf|^2 =  1.691E-16

     End of self-consistent calculation

     Convergence has been achieved 


     Representation #   3 modes #   3   4

     Self-consistent Calculation

      iter #   1 total cpu time :   145.3 secs   av.it.:   6.1
      thresh= 1.000E-02 alpha_mix =  0.700 |ddv_scf|^2 =  5.514E-08

      iter #   2 total cpu time :   148.6 secs   av.it.:  11.4
      thresh= 2.348E-05 alpha_mix =  0.700 |ddv_scf|^2 =  3.820E-09

      iter #   3 total cpu time :   151.0 secs   av.it.:  11.2
      thresh= 6.181E-06 alpha_mix =  0.700 |ddv_scf|^2 =  5.529E-11

      iter #   4 total cpu time :   153.9 secs   av.it.:  11.4
      thresh= 7.436E-07 alpha_mix =  0.700 |ddv_scf|^2 =  5.545E-13

      iter #   5 total cpu time :   156.6 secs   av.it.:  11.3
      thresh= 7.447E-08 alpha_mix =  0.700 |ddv_scf|^2 =  1.079E-14

      iter #   6 total cpu time :   157.9 secs   av.it.:  11.5
      thresh= 1.039E-08 alpha_mix =  0.700 |ddv_scf|^2 =  7.356E-17

     End of self-consistent calculation

     Convergence has been achieved 


     Representation #   4 modes #   5   6

     Self-consistent Calculation

      iter #   1 total cpu time :   160.3 secs   av.it.:   6.0
      thresh= 1.000E-02 alpha_mix =  0.700 |ddv_scf|^2 =  5.515E-08

      iter #   2 total cpu time :   162.5 secs   av.it.:  11.3
      thresh= 2.348E-05 alpha_mix =  0.700 |ddv_scf|^2 =  3.823E-09

      iter #   3 total cpu time :   165.3 secs   av.it.:  11.2
      thresh= 6.183E-06 alpha_mix =  0.700 |ddv_scf|^2 =  5.527E-11

      iter #   4 total cpu time :   167.9 secs   av.it.:  11.3
      thresh= 7.435E-07 alpha_mix =  0.700 |ddv_scf|^2 =  5.546E-13

      iter #   5 total cpu time :   170.6 secs   av.it.:  11.3
      thresh= 7.447E-08 alpha_mix =  0.700 |ddv_scf|^2 =  1.079E-14

      iter #   6 total cpu time :   171.7 secs   av.it.:  11.5
      thresh= 1.039E-08 alpha_mix =  0.700 |ddv_scf|^2 =  7.350E-17

     End of self-consistent calculation

     Convergence has been achieved 
 
     Number of q in the star =    8
     List of q in the star:
          1  -0.333333333   0.333333333  -0.333333333
          2   0.333333333   0.333333333   0.333333333
          3  -0.333333333  -0.333333333  -0.333333333
          4   0.333333333  -0.333333333   0.333333333
          5   0.333333333  -0.333333333  -0.333333333
          6   0.333333333   0.333333333  -0.333333333
          7  -0.333333333  -0.333333333   0.333333333
          8  -0.333333333   0.333333333   0.333333333

     Diagonalizing the dynamical matrix

     q = (   -0.333333333   0.333333333  -0.333333333 ) 

 **************************************************************************
     freq (    1) =       3.044160 [THz] =     101.542258 [cm-1]
     freq (    2) =       3.044160 [THz] =     101.542258 [cm-1]
     freq (    3) =       8.747663 [THz] =     291.790628 [cm-1]
     freq (    4) =      13.857041 [THz] =     462.221124 [cm-1]
     freq (    5) =      14.763312 [THz] =     492.451073 [cm-1]
     freq (    6) =      14.763312 [THz] =     492.451073 [cm-1]
 **************************************************************************

     Mode symmetry, C_3v (3m)   point group:

     freq (   1-   2) =        101.5  [cm-1]   --> E    L_3           
     freq (   3-   3) =        291.8  [cm-1]   --> A_1  L_1           
     freq (   4-   4) =        462.2  [cm-1]   --> A_1  L_1           
     freq (   5-   6) =        492.5  [cm-1]   --> E    L_3           

     Calculation of q =    0.5000000  -0.5000000   0.5000000
 
     Parallelization info
     --------------------
     sticks:   dense  smooth     PW     G-vecs:    dense   smooth      PW
     Min         501     501    168                10436    10436    2007
     Max         502     502    169                10439    10439    2008
     Sum        1003    1003    337                20875    20875    4015
 
     Using Slab Decomposition
 

     Title: 
     default                                                                    


     bravais-lattice index     =            2
     lattice parameter (alat)  =      10.1899  a.u.
     unit-cell volume          =     264.5151 (a.u.)^3
     number of atoms/cell      =            2
     number of atomic types    =            1
     number of electrons       =         8.00
     number of Kohn-Sham states=            4
     kinetic-energy cutoff     =      70.0000  Ry
     charge density cutoff     =     280.0000  Ry
     Exchange-correlation= PW
                           (   1   4   0   0   0   0   0)

     celldm(1)=  10.189905  celldm(2)=   0.000000  celldm(3)=   0.000000
     celldm(4)=   0.000000  celldm(5)=   0.000000  celldm(6)=   0.000000

     crystal axes: (cart. coord. in units of alat)
               a(1) = (  -0.500000   0.000000   0.500000 )  
               a(2) = (   0.000000   0.500000   0.500000 )  
               a(3) = (  -0.500000   0.500000   0.000000 )  

     reciprocal axes: (cart. coord. in units 2 pi/alat)
               b(1) = ( -1.000000 -1.000000  1.000000 )  
               b(2) = (  1.000000  1.000000  1.000000 )  
               b(3) = ( -1.000000  1.000000 -1.000000 )  


     PseudoPot. # 1 for Si read from file:
     ./pseudos/Si.nc.UPF
     MD5 check sum: 9e2d726316af3d4752eea8ab0afbb951
     Pseudo is Norm-conserving + core correction, Zval =  4.0
     Generated using ONCVPSP code by D. R. Hamann
     Using radial grid of 1510 points,  6 beta functions with: 
                l(1) =   0
                l(2) =   0
                l(3) =   1
                l(4) =   1
                l(5) =   2
                l(6) =   2

     atomic species   valence    mass     pseudopotential
        Si             4.00    28.08550     Si( 1.00)

     48 Sym. Ops., with inversion, found



   Cartesian axes

     site n.     atom                  positions (alat units)
         1           Si  tau(   1) = (   0.0000000   0.0000000   0.0000000  )
         2           Si  tau(   2) = (  -0.2500000   0.2500000   0.2500000  )

     number of k points=   182

     Number of k-points >= 100: set verbosity='high' to print them.

     Dense  grid:    20875 G-vectors     FFT dimensions: (  40,  40,  40)

     Estimated max dynamical RAM per process >       6.42 MB

     Estimated total dynamical RAM >     334.07 MB

     The potential is recalculated from file :
     /fastscratch/tsievers/QE_TMP_DIR/_ph0/si_ph_bench_poolsize_2_n_procs_52_0.save/charge-density

     Starting wfcs are    8 atomic wfcs

     Band Structure Calculation
     Davidson diagonalization with overlap

     ethr =  1.25E-10,  avg # of iterations = 12.9

     total cpu time spent up to now is        3.3 secs

     End of band structure calculation

     Number of k-points >= 100: set verbosity='high' to print the bands.

     highest occupied level (ev):     6.1106

     Writing config to output data dir /fastscratch/tsievers/QE_TMP_DIR/_ph0/si_ph_bench_poolsize_2_n_procs_52_0.save/

     default                                                                    

     bravais-lattice index     =            2
     lattice parameter (alat)  =      10.1899  a.u.
     unit-cell volume          =     264.5151 (a.u.)^3
     number of atoms/cell      =            2
     number of atomic types    =            1
     kinetic-energy cut-off    =      70.0000  Ry
     charge density cut-off    =     280.0000  Ry
     convergence threshold     =      1.0E-15
     beta                      =       0.7000
     number of iterations used =            4
     Exchange-correlation= PW
                           (   1   4   0   0   0   0   0)


     celldm(1)=   10.18990  celldm(2)=    0.00000  celldm(3)=    0.00000
     celldm(4)=    0.00000  celldm(5)=    0.00000  celldm(6)=    0.00000

     crystal axes: (cart. coord. in units of alat)
               a(1) = ( -0.5000  0.0000  0.5000 )  
               a(2) = (  0.0000  0.5000  0.5000 )  
               a(3) = ( -0.5000  0.5000  0.0000 )  

     reciprocal axes: (cart. coord. in units 2 pi/alat)
               b(1) = ( -1.0000 -1.0000  1.0000 )  
               b(2) = (  1.0000  1.0000  1.0000 )  
               b(3) = ( -1.0000  1.0000 -1.0000 )  


     Atoms inside the unit cell: 

     Cartesian axes

     site n.  atom      mass           positions (alat units)
        1     Si  28.0855   tau(    1) = (    0.00000    0.00000    0.00000  )
        2     Si  28.0855   tau(    2) = (   -0.25000    0.25000    0.25000  )

     Computing dynamical matrix for 
                    q = (   0.5000000  -0.5000000   0.5000000 )
 
     13 Sym.Ops. (with q -> -q+G )


     G cutoff =  736.4420  (  10439 G-vectors)     FFT grid: ( 40, 40, 40)
     number of k points=   182

     PseudoPot. # 1 for Si read from file:
     ./pseudos/Si.nc.UPF
     MD5 check sum: 9e2d726316af3d4752eea8ab0afbb951
     Pseudo is Norm-conserving + core correction, Zval =  4.0
     Generated using ONCVPSP code by D. R. Hamann
     Using radial grid of 1510 points,  6 beta functions with: 
                l(1) =   0
                l(2) =   0
                l(3) =   1
                l(4) =   1
                l(5) =   2
                l(6) =   2


     Atomic displacements:
     There are    4 irreducible representations

     Representation     1      1 modes -  To be done

     Representation     2      1 modes -  To be done

     Representation     3      2 modes -  To be done

     Representation     4      2 modes -  To be done



     Alpha used in Ewald sum =   2.8000
     PHONON       :   1m28.65s CPU   2m55.99s WALL



     Representation #   1 mode #   1

     Self-consistent Calculation

      iter #   1 total cpu time :   176.3 secs   av.it.:   5.8
      thresh= 1.000E-02 alpha_mix =  0.700 |ddv_scf|^2 =  3.144E-06

      iter #   2 total cpu time :   177.0 secs   av.it.:   9.9
      thresh= 1.773E-04 alpha_mix =  0.700 |ddv_scf|^2 =  2.900E-06

      iter #   3 total cpu time :   177.8 secs   av.it.:   9.2
      thresh= 1.703E-04 alpha_mix =  0.700 |ddv_scf|^2 =  3.883E-10

      iter #   4 total cpu time :   179.3 secs   av.it.:  10.1
      thresh= 1.971E-06 alpha_mix =  0.700 |ddv_scf|^2 =  6.690E-12

      iter #   5 total cpu time :   180.1 secs   av.it.:   9.7
      thresh= 2.587E-07 alpha_mix =  0.700 |ddv_scf|^2 =  9.556E-14

      iter #   6 total cpu time :   181.1 secs   av.it.:   9.7
      thresh= 3.091E-08 alpha_mix =  0.700 |ddv_scf|^2 =  1.251E-15

      iter #   7 total cpu time :   181.5 secs   av.it.:   9.7
      thresh= 3.537E-09 alpha_mix =  0.700 |ddv_scf|^2 =  4.278E-18

     End of self-consistent calculation

     Convergence has been achieved 


     Representation #   2 mode #   2

     Self-consistent Calculation

      iter #   1 total cpu time :   182.5 secs   av.it.:   6.7
      thresh= 1.000E-02 alpha_mix =  0.700 |ddv_scf|^2 =  4.802E-05

      iter #   2 total cpu time :   183.6 secs   av.it.:  10.0
      thresh= 6.930E-04 alpha_mix =  0.700 |ddv_scf|^2 =  1.569E-04

      iter #   3 total cpu time :   184.9 secs   av.it.:   9.0
      thresh= 1.253E-03 alpha_mix =  0.700 |ddv_scf|^2 =  9.299E-09

      iter #   4 total cpu time :   185.6 secs   av.it.:   9.7
      thresh= 9.643E-06 alpha_mix =  0.700 |ddv_scf|^2 =  1.945E-10

      iter #   5 total cpu time :   187.8 secs   av.it.:  10.3
      thresh= 1.395E-06 alpha_mix =  0.700 |ddv_scf|^2 =  9.629E-12

      iter #   6 total cpu time :   188.5 secs   av.it.:  10.0
      thresh= 3.103E-07 alpha_mix =  0.700 |ddv_scf|^2 =  2.662E-13

      iter #   7 total cpu time :   188.8 secs   av.it.:   9.4
      thresh= 5.159E-08 alpha_mix =  0.700 |ddv_scf|^2 =  7.480E-17

     End of self-consistent calculation

     Convergence has been achieved 


     Representation #   3 modes #   3   4

     Self-consistent Calculation

      iter #   1 total cpu time :   190.1 secs   av.it.:   6.1
      thresh= 1.000E-02 alpha_mix =  0.700 |ddv_scf|^2 =  1.110E-07

      iter #   2 total cpu time :   193.5 secs   av.it.:  11.2
      thresh= 3.331E-05 alpha_mix =  0.700 |ddv_scf|^2 =  9.407E-09

      iter #   3 total cpu time :   195.9 secs   av.it.:  11.1
      thresh= 9.699E-06 alpha_mix =  0.700 |ddv_scf|^2 =  6.299E-11

      iter #   4 total cpu time :   198.5 secs   av.it.:  11.1
      thresh= 7.937E-07 alpha_mix =  0.700 |ddv_scf|^2 =  7.045E-14

      iter #   5 total cpu time :   199.3 secs   av.it.:  11.3
      thresh= 2.654E-08 alpha_mix =  0.700 |ddv_scf|^2 =  9.264E-16

     End of self-consistent calculation

     Convergence has been achieved 


     Representation #   4 modes #   5   6

     Self-consistent Calculation

      iter #   1 total cpu time :   202.3 secs   av.it.:   5.5
      thresh= 1.000E-02 alpha_mix =  0.700 |ddv_scf|^2 =  1.260E-08

      iter #   2 total cpu time :   204.4 secs   av.it.:  11.2
      thresh= 1.122E-05 alpha_mix =  0.700 |ddv_scf|^2 =  3.302E-10

      iter #   3 total cpu time :   206.2 secs   av.it.:  11.2
      thresh= 1.817E-06 alpha_mix =  0.700 |ddv_scf|^2 =  2.030E-11

      iter #   4 total cpu time :   208.4 secs   av.it.:  11.2
      thresh= 4.506E-07 alpha_mix =  0.700 |ddv_scf|^2 =  8.685E-14

      iter #   5 total cpu time :   210.6 secs   av.it.:  11.2
      thresh= 2.947E-08 alpha_mix =  0.700 |ddv_scf|^2 =  1.388E-15

      iter #   6 total cpu time :   212.0 secs   av.it.:  11.2
      thresh= 3.725E-09 alpha_mix =  0.700 |ddv_scf|^2 =  2.937E-18

     End of self-consistent calculation

     Convergence has been achieved 
 
     Number of q in the star =    4
     List of q in the star:
          1   0.500000000  -0.500000000   0.500000000
          2   0.500000000   0.500000000   0.500000000
          3  -0.500000000   0.500000000   0.500000000
          4   0.500000000   0.500000000  -0.500000000

     Diagonalizing the dynamical matrix

     q = (    0.500000000  -0.500000000   0.500000000 ) 

 **************************************************************************
     freq (    1) =       3.158380 [THz] =     105.352214 [cm-1]
     freq (    2) =       3.158380 [THz] =     105.352214 [cm-1]
     freq (    3) =      11.168997 [THz] =     372.557634 [cm-1]
     freq (    4) =      12.390724 [THz] =     413.310049 [cm-1]
     freq (    5) =      14.704274 [THz] =     490.481775 [cm-1]
     freq (    6) =      14.704274 [THz] =     490.481775 [cm-1]
 **************************************************************************

     Calculation of q =    0.0000000   0.3333333   0.0000000
 
     Parallelization info
     --------------------
     sticks:   dense  smooth     PW     G-vecs:    dense   smooth      PW
     Min         501     501    156                10436    10436    1859
     Max         502     502    157                10439    10439    1860
     Sum        1003    1003    313                20875    20875    3719
 
     Using Slab Decomposition
 

     Title: 
     default                                                                    


     bravais-lattice index     =            2
     lattice parameter (alat)  =      10.1899  a.u.
     unit-cell volume          =     264.5151 (a.u.)^3
     number of atoms/cell      =            2
     number of atomic types    =            1
     number of electrons       =         8.00
     number of Kohn-Sham states=            4
     kinetic-energy cutoff     =      70.0000  Ry
     charge density cutoff     =     280.0000  Ry
     Exchange-correlation= PW
                           (   1   4   0   0   0   0   0)

     celldm(1)=  10.189905  celldm(2)=   0.000000  celldm(3)=   0.000000
     celldm(4)=   0.000000  celldm(5)=   0.000000  celldm(6)=   0.000000

     crystal axes: (cart. coord. in units of alat)
               a(1) = (  -0.500000   0.000000   0.500000 )  
               a(2) = (   0.000000   0.500000   0.500000 )  
               a(3) = (  -0.500000   0.500000   0.000000 )  

     reciprocal axes: (cart. coord. in units 2 pi/alat)
               b(1) = ( -1.000000 -1.000000  1.000000 )  
               b(2) = (  1.000000  1.000000  1.000000 )  
               b(3) = ( -1.000000  1.000000 -1.000000 )  


     PseudoPot. # 1 for Si read from file:
     ./pseudos/Si.nc.UPF
     MD5 check sum: 9e2d726316af3d4752eea8ab0afbb951
     Pseudo is Norm-conserving + core correction, Zval =  4.0
     Generated using ONCVPSP code by D. R. Hamann
     Using radial grid of 1510 points,  6 beta functions with: 
                l(1) =   0
                l(2) =   0
                l(3) =   1
                l(4) =   1
                l(5) =   2
                l(6) =   2

     atomic species   valence    mass     pseudopotential
        Si             4.00    28.08550     Si( 1.00)

     48 Sym. Ops., with inversion, found



   Cartesian axes

     site n.     atom                  positions (alat units)
         1           Si  tau(   1) = (   0.0000000   0.0000000   0.0000000  )
         2           Si  tau(   2) = (  -0.2500000   0.2500000   0.2500000  )

     number of k points=   252

     Number of k-points >= 100: set verbosity='high' to print them.

     Dense  grid:    20875 G-vectors     FFT dimensions: (  40,  40,  40)

     Estimated max dynamical RAM per process >       6.40 MB

     Estimated total dynamical RAM >     332.70 MB

     The potential is recalculated from file :
     /fastscratch/tsievers/QE_TMP_DIR/_ph0/si_ph_bench_poolsize_2_n_procs_52_0.save/charge-density

     Starting wfcs are    8 atomic wfcs

     Band Structure Calculation
     Davidson diagonalization with overlap

     ethr =  1.25E-10,  avg # of iterations = 12.8

     total cpu time spent up to now is        4.1 secs

     End of band structure calculation

     Number of k-points >= 100: set verbosity='high' to print the bands.

     highest occupied level (ev):     6.1106

     Writing config to output data dir /fastscratch/tsievers/QE_TMP_DIR/_ph0/si_ph_bench_poolsize_2_n_procs_52_0.save/

     default                                                                    

     bravais-lattice index     =            2
     lattice parameter (alat)  =      10.1899  a.u.
     unit-cell volume          =     264.5151 (a.u.)^3
     number of atoms/cell      =            2
     number of atomic types    =            1
     kinetic-energy cut-off    =      70.0000  Ry
     charge density cut-off    =     280.0000  Ry
     convergence threshold     =      1.0E-15
     beta                      =       0.7000
     number of iterations used =            4
     Exchange-correlation= PW
                           (   1   4   0   0   0   0   0)


     celldm(1)=   10.18990  celldm(2)=    0.00000  celldm(3)=    0.00000
     celldm(4)=    0.00000  celldm(5)=    0.00000  celldm(6)=    0.00000

     crystal axes: (cart. coord. in units of alat)
               a(1) = ( -0.5000  0.0000  0.5000 )  
               a(2) = (  0.0000  0.5000  0.5000 )  
               a(3) = ( -0.5000  0.5000  0.0000 )  

     reciprocal axes: (cart. coord. in units 2 pi/alat)
               b(1) = ( -1.0000 -1.0000  1.0000 )  
               b(2) = (  1.0000  1.0000  1.0000 )  
               b(3) = ( -1.0000  1.0000 -1.0000 )  


     Atoms inside the unit cell: 

     Cartesian axes

     site n.  atom      mass           positions (alat units)
        1     Si  28.0855   tau(    1) = (    0.00000    0.00000    0.00000  )
        2     Si  28.0855   tau(    2) = (   -0.25000    0.25000    0.25000  )

     Computing dynamical matrix for 
                    q = (   0.0000000   0.3333333   0.0000000 )
 
      8 Sym.Ops. (no q -> -q+G )


     G cutoff =  736.4420  (  10439 G-vectors)     FFT grid: ( 40, 40, 40)
     number of k points=   252

     PseudoPot. # 1 for Si read from file:
     ./pseudos/Si.nc.UPF
     MD5 check sum: 9e2d726316af3d4752eea8ab0afbb951
     Pseudo is Norm-conserving + core correction, Zval =  4.0
     Generated using ONCVPSP code by D. R. Hamann
     Using radial grid of 1510 points,  6 beta functions with: 
                l(1) =   0
                l(2) =   0
                l(3) =   1
                l(4) =   1
                l(5) =   2
                l(6) =   2

     Mode symmetry, C_4v (4mm)  point group:


     Atomic displacements:
     There are    4 irreducible representations

     Representation     1      1 modes -  To be done

     Representation     2      1 modes -  To be done

     Representation     3      2 modes -  To be done

     Representation     4      2 modes -  To be done



     Alpha used in Ewald sum =   2.8000
     PHONON       :   1m47.21s CPU   3m35.29s WALL



     Representation #   1 mode #   1

     Self-consistent Calculation

      iter #   1 total cpu time :   216.0 secs   av.it.:   6.8
      thresh= 1.000E-02 alpha_mix =  0.700 |ddv_scf|^2 =  2.084E-03

      iter #   2 total cpu time :   217.0 secs   av.it.:   9.1
      thresh= 4.565E-03 alpha_mix =  0.700 |ddv_scf|^2 =  6.356E-02

      iter #   3 total cpu time :   218.1 secs   av.it.:   8.0
      thresh= 1.000E-02 alpha_mix =  0.700 |ddv_scf|^2 =  5.840E-08

      iter #   4 total cpu time :   219.1 secs   av.it.:   9.0
      thresh= 2.417E-05 alpha_mix =  0.700 |ddv_scf|^2 =  2.774E-09

      iter #   5 total cpu time :   220.1 secs   av.it.:   8.6
      thresh= 5.266E-06 alpha_mix =  0.700 |ddv_scf|^2 =  9.029E-10

      iter #   6 total cpu time :   221.3 secs   av.it.:   8.1
      thresh= 3.005E-06 alpha_mix =  0.700 |ddv_scf|^2 =  1.212E-12

      iter #   7 total cpu time :   222.4 secs   av.it.:   8.4
      thresh= 1.101E-07 alpha_mix =  0.700 |ddv_scf|^2 =  2.778E-14

      iter #   8 total cpu time :   223.1 secs   av.it.:   8.3
      thresh= 1.667E-08 alpha_mix =  0.700 |ddv_scf|^2 =  3.539E-16

     End of self-consistent calculation

     Convergence has been achieved 


     Representation #   2 mode #   2

     Self-consistent Calculation

      iter #   1 total cpu time :   224.2 secs   av.it.:   5.9
      thresh= 1.000E-02 alpha_mix =  0.700 |ddv_scf|^2 =  3.182E-07

      iter #   2 total cpu time :   225.1 secs   av.it.:  10.4
      thresh= 5.641E-05 alpha_mix =  0.700 |ddv_scf|^2 =  5.145E-08

      iter #   3 total cpu time :   226.1 secs   av.it.:  10.2
      thresh= 2.268E-05 alpha_mix =  0.700 |ddv_scf|^2 =  6.508E-10

      iter #   4 total cpu time :   227.0 secs   av.it.:  10.4
      thresh= 2.551E-06 alpha_mix =  0.700 |ddv_scf|^2 =  2.703E-11

      iter #   5 total cpu time :   227.8 secs   av.it.:  10.3
      thresh= 5.199E-07 alpha_mix =  0.700 |ddv_scf|^2 =  6.157E-14

      iter #   6 total cpu time :   228.8 secs   av.it.:  10.4
      thresh= 2.481E-08 alpha_mix =  0.700 |ddv_scf|^2 =  1.230E-15

      iter #   7 total cpu time :   229.2 secs   av.it.:  10.4
      thresh= 3.507E-09 alpha_mix =  0.700 |ddv_scf|^2 =  2.872E-17

     End of self-consistent calculation

     Convergence has been achieved 


     Representation #   3 modes #   3   4

     Self-consistent Calculation

      iter #   1 total cpu time :   230.7 secs   av.it.:   6.1
      thresh= 1.000E-02 alpha_mix =  0.700 |ddv_scf|^2 =  5.759E-08

      iter #   2 total cpu time :   246.8 secs   av.it.:  11.3
      thresh= 2.400E-05 alpha_mix =  0.700 |ddv_scf|^2 =  5.250E-09

      iter #   3 total cpu time :   248.4 secs   av.it.:  11.1
      thresh= 7.245E-06 alpha_mix =  0.700 |ddv_scf|^2 =  6.118E-11

      iter #   4 total cpu time :   252.4 secs   av.it.:  11.3
      thresh= 7.822E-07 alpha_mix =  0.700 |ddv_scf|^2 =  6.882E-13

      iter #   5 total cpu time :   255.1 secs   av.it.:  11.2
      thresh= 8.296E-08 alpha_mix =  0.700 |ddv_scf|^2 =  1.142E-14

      iter #   6 total cpu time :   255.9 secs   av.it.:  11.5
      thresh= 1.069E-08 alpha_mix =  0.700 |ddv_scf|^2 =  4.653E-17

     End of self-consistent calculation

     Convergence has been achieved 


     Representation #   4 modes #   5   6

     Self-consistent Calculation

      iter #   1 total cpu time :   257.8 secs   av.it.:   6.0
      thresh= 1.000E-02 alpha_mix =  0.700 |ddv_scf|^2 =  7.592E-08

      iter #   2 total cpu time :   260.4 secs   av.it.:  11.2
      thresh= 2.755E-05 alpha_mix =  0.700 |ddv_scf|^2 =  7.159E-09

      iter #   3 total cpu time :   263.1 secs   av.it.:  11.0
      thresh= 8.461E-06 alpha_mix =  0.700 |ddv_scf|^2 =  6.477E-11

      iter #   4 total cpu time :   265.6 secs   av.it.:  11.2
      thresh= 8.048E-07 alpha_mix =  0.700 |ddv_scf|^2 =  4.403E-13

      iter #   5 total cpu time :   267.9 secs   av.it.:  11.1
      thresh= 6.636E-08 alpha_mix =  0.700 |ddv_scf|^2 =  1.046E-14

      iter #   6 total cpu time :   268.8 secs   av.it.:  11.5
      thresh= 1.023E-08 alpha_mix =  0.700 |ddv_scf|^2 =  4.428E-17

     End of self-consistent calculation

     Convergence has been achieved 
 
     Number of q in the star =    6
     List of q in the star:
          1   0.000000000   0.333333333   0.000000000
          2   0.333333333   0.000000000   0.000000000
          3   0.000000000   0.000000000   0.333333333
          4   0.000000000  -0.333333333   0.000000000
          5  -0.333333333   0.000000000   0.000000000
          6   0.000000000   0.000000000  -0.333333333

     Diagonalizing the dynamical matrix

     q = (    0.000000000   0.333333333   0.000000000 ) 

 **************************************************************************
     freq (    1) =       2.948511 [THz] =      98.351752 [cm-1]
     freq (    2) =       2.948511 [THz] =      98.351752 [cm-1]
     freq (    3) =       4.953358 [THz] =     165.226235 [cm-1]
     freq (    4) =      14.670289 [THz] =     489.348174 [cm-1]
     freq (    5) =      14.670289 [THz] =     489.348174 [cm-1]
     freq (    6) =      15.143136 [THz] =     505.120654 [cm-1]
 **************************************************************************

     Mode symmetry, C_4v (4mm)  point group:

     freq (   1-   2) =         98.4  [cm-1]   --> E    G_5 D_5       
     freq (   3-   3) =        165.2  [cm-1]   --> A_1  G_1 D_1       
     freq (   4-   5) =        489.3  [cm-1]   --> E    G_5 D_5       
     freq (   6-   6) =        505.1  [cm-1]   --> B_2  G_4 D_2'      

     Calculation of q =   -0.1666667   0.5000000  -0.1666667
 
     Parallelization info
     --------------------
     sticks:   dense  smooth     PW     G-vecs:    dense   smooth      PW
     Min         501     501    156                10436    10436    1917
     Max         502     502    157                10439    10439    1922
     Sum        1003    1003    313                20875    20875    3839
 
     Using Slab Decomposition
 

     Title: 
     default                                                                    


     bravais-lattice index     =            2
     lattice parameter (alat)  =      10.1899  a.u.
     unit-cell volume          =     264.5151 (a.u.)^3
     number of atoms/cell      =            2
     number of atomic types    =            1
     number of electrons       =         8.00
     number of Kohn-Sham states=            4
     kinetic-energy cutoff     =      70.0000  Ry
     charge density cutoff     =     280.0000  Ry
     Exchange-correlation= PW
                           (   1   4   0   0   0   0   0)

     celldm(1)=  10.189905  celldm(2)=   0.000000  celldm(3)=   0.000000
     celldm(4)=   0.000000  celldm(5)=   0.000000  celldm(6)=   0.000000

     crystal axes: (cart. coord. in units of alat)
               a(1) = (  -0.500000   0.000000   0.500000 )  
               a(2) = (   0.000000   0.500000   0.500000 )  
               a(3) = (  -0.500000   0.500000   0.000000 )  

     reciprocal axes: (cart. coord. in units 2 pi/alat)
               b(1) = ( -1.000000 -1.000000  1.000000 )  
               b(2) = (  1.000000  1.000000  1.000000 )  
               b(3) = ( -1.000000  1.000000 -1.000000 )  


     PseudoPot. # 1 for Si read from file:
     ./pseudos/Si.nc.UPF
     MD5 check sum: 9e2d726316af3d4752eea8ab0afbb951
     Pseudo is Norm-conserving + core correction, Zval =  4.0
     Generated using ONCVPSP code by D. R. Hamann
     Using radial grid of 1510 points,  6 beta functions with: 
                l(1) =   0
                l(2) =   0
                l(3) =   1
                l(4) =   1
                l(5) =   2
                l(6) =   2

     atomic species   valence    mass     pseudopotential
        Si             4.00    28.08550     Si( 1.00)

     48 Sym. Ops., with inversion, found



   Cartesian axes

     site n.     atom                  positions (alat units)
         1           Si  tau(   1) = (   0.0000000   0.0000000   0.0000000  )
         2           Si  tau(   2) = (  -0.2500000   0.2500000   0.2500000  )

     number of k points=   936

     Number of k-points >= 100: set verbosity='high' to print them.

     Dense  grid:    20875 G-vectors     FFT dimensions: (  40,  40,  40)

     Estimated max dynamical RAM per process >       6.41 MB

     Estimated total dynamical RAM >     333.28 MB

     The potential is recalculated from file :
     /fastscratch/tsievers/QE_TMP_DIR/_ph0/si_ph_bench_poolsize_2_n_procs_52_0.save/charge-density

     Starting wfcs are    8 atomic wfcs

     Band Structure Calculation
     Davidson diagonalization with overlap

     ethr =  1.25E-10,  avg # of iterations = 12.8

     total cpu time spent up to now is        6.4 secs

     End of band structure calculation

     Number of k-points >= 100: set verbosity='high' to print the bands.

     highest occupied level (ev):     6.1106

     Writing config to output data dir /fastscratch/tsievers/QE_TMP_DIR/_ph0/si_ph_bench_poolsize_2_n_procs_52_0.save/

     default                                                                    

     bravais-lattice index     =            2
     lattice parameter (alat)  =      10.1899  a.u.
     unit-cell volume          =     264.5151 (a.u.)^3
     number of atoms/cell      =            2
     number of atomic types    =            1
     kinetic-energy cut-off    =      70.0000  Ry
     charge density cut-off    =     280.0000  Ry
     convergence threshold     =      1.0E-15
     beta                      =       0.7000
     number of iterations used =            4
     Exchange-correlation= PW
                           (   1   4   0   0   0   0   0)


     celldm(1)=   10.18990  celldm(2)=    0.00000  celldm(3)=    0.00000
[...]
      thresh= 1.982E-06 alpha_mix =  0.700 |ddv_scf|^2 =  9.973E-12

      iter #   6 total cpu time :  1116.4 secs   av.it.:  10.6
      thresh= 3.158E-07 alpha_mix =  0.700 |ddv_scf|^2 =  5.881E-14

      iter #   7 total cpu time :  1117.9 secs   av.it.:  10.4
      thresh= 2.425E-08 alpha_mix =  0.700 |ddv_scf|^2 =  7.207E-15

      iter #   8 total cpu time :  1121.0 secs   av.it.:  10.5
      thresh= 8.489E-09 alpha_mix =  0.700 |ddv_scf|^2 =  2.330E-15

      iter #   9 total cpu time :  1122.2 secs   av.it.:  10.1
      thresh= 4.827E-09 alpha_mix =  0.700 |ddv_scf|^2 =  3.465E-16

     End of self-consistent calculation

     Convergence has been achieved 


     Representation #   6 mode #   6

     Self-consistent Calculation

      iter #   1 total cpu time :  1124.3 secs   av.it.:   6.3
      thresh= 1.000E-02 alpha_mix =  0.700 |ddv_scf|^2 =  2.529E-06

      iter #   2 total cpu time :  1126.1 secs   av.it.:  10.7
      thresh= 1.590E-04 alpha_mix =  0.700 |ddv_scf|^2 =  2.774E-06

      iter #   3 total cpu time :  1127.9 secs   av.it.:   9.8
      thresh= 1.665E-04 alpha_mix =  0.700 |ddv_scf|^2 =  6.791E-08

      iter #   4 total cpu time :  1130.0 secs   av.it.:  10.0
      thresh= 2.606E-05 alpha_mix =  0.700 |ddv_scf|^2 =  2.216E-10

      iter #   5 total cpu time :  1132.0 secs   av.it.:  10.4
      thresh= 1.489E-06 alpha_mix =  0.700 |ddv_scf|^2 =  4.176E-12

      iter #   6 total cpu time :  1134.4 secs   av.it.:  10.5
      thresh= 2.044E-07 alpha_mix =  0.700 |ddv_scf|^2 =  1.952E-14

      iter #   7 total cpu time :  1137.1 secs   av.it.:  10.5
      thresh= 1.397E-08 alpha_mix =  0.700 |ddv_scf|^2 =  1.119E-15

      iter #   8 total cpu time :  1138.1 secs   av.it.:  10.7
      thresh= 3.345E-09 alpha_mix =  0.700 |ddv_scf|^2 =  2.351E-17

     End of self-consistent calculation

     Convergence has been achieved 
 
     Number of q in the star =   24
     List of q in the star:
          1   0.500000000  -0.166666667   0.833333333
          2   0.833333333   0.166666667   0.500000000
          3   0.500000000   0.166666667   0.833333333
          4  -0.833333333  -0.166666667   0.500000000
          5  -0.833333333  -0.166666667  -0.500000000
          6  -0.500000000  -0.166666667  -0.833333333
          7   0.833333333  -0.166666667   0.500000000
          8  -0.500000000  -0.166666667   0.833333333
          9  -0.833333333   0.166666667   0.500000000
         10   0.833333333   0.166666667  -0.500000000
         11   0.833333333  -0.166666667  -0.500000000
         12   0.500000000   0.166666667  -0.833333333
         13  -0.500000000   0.166666667   0.833333333
         14  -0.500000000   0.166666667  -0.833333333
         15  -0.833333333   0.166666667  -0.500000000
         16   0.833333333  -0.500000000   0.166666667
         17   0.833333333   0.500000000  -0.166666667
         18  -0.833333333  -0.500000000  -0.166666667
         19  -0.833333333   0.500000000   0.166666667
         20   0.166666667  -0.500000000   0.833333333
         21  -0.166666667   0.500000000   0.833333333
         22   0.166666667   0.500000000  -0.833333333
         23  -0.166666667  -0.500000000  -0.833333333
         24  -0.500000000   0.833333333   0.166666667

     Diagonalizing the dynamical matrix

     q = (    0.500000000  -0.166666667   0.833333333 ) 

 **************************************************************************
     freq (    1) =       5.052046 [THz] =     168.518115 [cm-1]
     freq (    2) =       6.066647 [THz] =     202.361549 [cm-1]
     freq (    3) =       9.812907 [THz] =     327.323355 [cm-1]
     freq (    4) =      11.453260 [THz] =     382.039629 [cm-1]
     freq (    5) =      14.041892 [THz] =     468.387084 [cm-1]
     freq (    6) =      14.270937 [THz] =     476.027207 [cm-1]
 **************************************************************************

     Calculation of q =   -0.3333333  -1.0000000   0.0000000
 
     Parallelization info
     --------------------
     sticks:   dense  smooth     PW     G-vecs:    dense   smooth      PW
     Min         501     501    174                10436    10436    2139
     Max         502     502    175                10439    10439    2140
     Sum        1003    1003    349                20875    20875    4279
 
     Using Slab Decomposition
 

     Title: 
     default                                                                    


     bravais-lattice index     =            2
     lattice parameter (alat)  =      10.1899  a.u.
     unit-cell volume          =     264.5151 (a.u.)^3
     number of atoms/cell      =            2
     number of atomic types    =            1
     number of electrons       =         8.00
     number of Kohn-Sham states=            4
     kinetic-energy cutoff     =      70.0000  Ry
     charge density cutoff     =     280.0000  Ry
     Exchange-correlation= PW
                           (   1   4   0   0   0   0   0)

     celldm(1)=  10.189905  celldm(2)=   0.000000  celldm(3)=   0.000000
     celldm(4)=   0.000000  celldm(5)=   0.000000  celldm(6)=   0.000000

     crystal axes: (cart. coord. in units of alat)
               a(1) = (  -0.500000   0.000000   0.500000 )  
               a(2) = (   0.000000   0.500000   0.500000 )  
               a(3) = (  -0.500000   0.500000   0.000000 )  

     reciprocal axes: (cart. coord. in units 2 pi/alat)
               b(1) = ( -1.000000 -1.000000  1.000000 )  
               b(2) = (  1.000000  1.000000  1.000000 )  
               b(3) = ( -1.000000  1.000000 -1.000000 )  


     PseudoPot. # 1 for Si read from file:
     ./pseudos/Si.nc.UPF
     MD5 check sum: 9e2d726316af3d4752eea8ab0afbb951
     Pseudo is Norm-conserving + core correction, Zval =  4.0
     Generated using ONCVPSP code by D. R. Hamann
     Using radial grid of 1510 points,  6 beta functions with: 
                l(1) =   0
                l(2) =   0
                l(3) =   1
                l(4) =   1
                l(5) =   2
                l(6) =   2

     atomic species   valence    mass     pseudopotential
        Si             4.00    28.08550     Si( 1.00)

     48 Sym. Ops., with inversion, found



   Cartesian axes

     site n.     atom                  positions (alat units)
         1           Si  tau(   1) = (   0.0000000   0.0000000   0.0000000  )
         2           Si  tau(   2) = (  -0.2500000   0.2500000   0.2500000  )

     number of k points=   432

     Number of k-points >= 100: set verbosity='high' to print them.

     Dense  grid:    20875 G-vectors     FFT dimensions: (  40,  40,  40)

     Estimated max dynamical RAM per process >       6.43 MB

     Estimated total dynamical RAM >     334.57 MB

     The potential is recalculated from file :
     /fastscratch/tsievers/QE_TMP_DIR/_ph0/si_ph_bench_poolsize_2_n_procs_52_0.save/charge-density

     Starting wfcs are    8 atomic wfcs

     Band Structure Calculation
     Davidson diagonalization with overlap

     ethr =  1.25E-10,  avg # of iterations = 12.8

     total cpu time spent up to now is       28.8 secs

     End of band structure calculation

     Number of k-points >= 100: set verbosity='high' to print the bands.

     highest occupied level (ev):     6.1106

     Writing config to output data dir /fastscratch/tsievers/QE_TMP_DIR/_ph0/si_ph_bench_poolsize_2_n_procs_52_0.save/

     default                                                                    

     bravais-lattice index     =            2
     lattice parameter (alat)  =      10.1899  a.u.
     unit-cell volume          =     264.5151 (a.u.)^3
     number of atoms/cell      =            2
     number of atomic types    =            1
     kinetic-energy cut-off    =      70.0000  Ry
     charge density cut-off    =     280.0000  Ry
     convergence threshold     =      1.0E-15
     beta                      =       0.7000
     number of iterations used =            4
     Exchange-correlation= PW
                           (   1   4   0   0   0   0   0)


     celldm(1)=   10.18990  celldm(2)=    0.00000  celldm(3)=    0.00000
     celldm(4)=    0.00000  celldm(5)=    0.00000  celldm(6)=    0.00000

     crystal axes: (cart. coord. in units of alat)
               a(1) = ( -0.5000  0.0000  0.5000 )  
               a(2) = (  0.0000  0.5000  0.5000 )  
               a(3) = ( -0.5000  0.5000  0.0000 )  

     reciprocal axes: (cart. coord. in units 2 pi/alat)
               b(1) = ( -1.0000 -1.0000  1.0000 )  
               b(2) = (  1.0000  1.0000  1.0000 )  
               b(3) = ( -1.0000  1.0000 -1.0000 )  


     Atoms inside the unit cell: 

     Cartesian axes

     site n.  atom      mass           positions (alat units)
        1     Si  28.0855   tau(    1) = (    0.00000    0.00000    0.00000  )
        2     Si  28.0855   tau(    2) = (   -0.25000    0.25000    0.25000  )

     Computing dynamical matrix for 
                    q = (  -0.3333333  -1.0000000   0.0000000 )
 
      4 Sym.Ops. (no q -> -q+G )


     G cutoff =  736.4420  (  10439 G-vectors)     FFT grid: ( 40, 40, 40)
     number of k points=   432

     PseudoPot. # 1 for Si read from file:
     ./pseudos/Si.nc.UPF
     MD5 check sum: 9e2d726316af3d4752eea8ab0afbb951
     Pseudo is Norm-conserving + core correction, Zval =  4.0
     Generated using ONCVPSP code by D. R. Hamann
     Using radial grid of 1510 points,  6 beta functions with: 
                l(1) =   0
                l(2) =   0
                l(3) =   1
                l(4) =   1
                l(5) =   2
                l(6) =   2


     Atomic displacements:
     There are    3 irreducible representations

     Representation     1      2 modes -  To be done

     Representation     2      2 modes -  To be done

     Representation     3      2 modes -  To be done



     Alpha used in Ewald sum =   2.8000
     PHONON       :  11m38.23s CPU  19m 2.60s WALL



     Representation #   1 modes #   1   2

     Self-consistent Calculation

      iter #   1 total cpu time :  1143.6 secs   av.it.:   6.2
      thresh= 1.000E-02 alpha_mix =  0.700 |ddv_scf|^2 =  5.042E-07

      iter #   2 total cpu time :  1147.2 secs   av.it.:  11.4
      thresh= 7.101E-05 alpha_mix =  0.700 |ddv_scf|^2 =  5.622E-07

      iter #   3 total cpu time :  1150.2 secs   av.it.:  10.8
      thresh= 7.498E-05 alpha_mix =  0.700 |ddv_scf|^2 =  4.579E-09

      iter #   4 total cpu time :  1153.7 secs   av.it.:  10.9
      thresh= 6.767E-06 alpha_mix =  0.700 |ddv_scf|^2 =  9.292E-11

      iter #   5 total cpu time :  1156.5 secs   av.it.:  11.1
      thresh= 9.640E-07 alpha_mix =  0.700 |ddv_scf|^2 =  1.073E-12

      iter #   6 total cpu time :  1159.4 secs   av.it.:  11.3
      thresh= 1.036E-07 alpha_mix =  0.700 |ddv_scf|^2 =  2.149E-14

      iter #   7 total cpu time :  1162.0 secs   av.it.:  11.2
      thresh= 1.466E-08 alpha_mix =  0.700 |ddv_scf|^2 =  1.124E-15

      iter #   8 total cpu time :  1163.9 secs   av.it.:  11.2
      thresh= 3.353E-09 alpha_mix =  0.700 |ddv_scf|^2 =  3.536E-17

     End of self-consistent calculation

     Convergence has been achieved 


     Representation #   2 modes #   3   4

     Self-consistent Calculation

      iter #   1 total cpu time :  1166.2 secs   av.it.:   6.4
      thresh= 1.000E-02 alpha_mix =  0.700 |ddv_scf|^2 =  9.143E-07

      iter #   2 total cpu time :  1170.0 secs   av.it.:  11.4
      thresh= 9.562E-05 alpha_mix =  0.700 |ddv_scf|^2 =  1.025E-06

      iter #   3 total cpu time :  1172.6 secs   av.it.:  10.8
      thresh= 1.013E-04 alpha_mix =  0.700 |ddv_scf|^2 =  8.859E-09

      iter #   4 total cpu time :  1176.9 secs   av.it.:  10.9
      thresh= 9.412E-06 alpha_mix =  0.700 |ddv_scf|^2 =  9.243E-11

      iter #   5 total cpu time :  1180.2 secs   av.it.:  11.1
      thresh= 9.614E-07 alpha_mix =  0.700 |ddv_scf|^2 =  2.106E-12

      iter #   6 total cpu time :  1183.3 secs   av.it.:  11.3
      thresh= 1.451E-07 alpha_mix =  0.700 |ddv_scf|^2 =  1.672E-14

      iter #   7 total cpu time :  1186.4 secs   av.it.:  11.2
      thresh= 1.293E-08 alpha_mix =  0.700 |ddv_scf|^2 =  1.064E-15

      iter #   8 total cpu time :  1188.1 secs   av.it.:  11.3
      thresh= 3.262E-09 alpha_mix =  0.700 |ddv_scf|^2 =  4.114E-17

     End of self-consistent calculation

     Convergence has been achieved 


     Representation #   3 modes #   5   6

     Self-consistent Calculation

      iter #   1 total cpu time :  1190.7 secs   av.it.:   6.5
      thresh= 1.000E-02 alpha_mix =  0.700 |ddv_scf|^2 =  1.211E-06

      iter #   2 total cpu time :  1193.8 secs   av.it.:  11.3
      thresh= 1.100E-04 alpha_mix =  0.700 |ddv_scf|^2 =  1.329E-06

      iter #   3 total cpu time :  1196.7 secs   av.it.:  10.6
      thresh= 1.153E-04 alpha_mix =  0.700 |ddv_scf|^2 =  1.072E-08

      iter #   4 total cpu time :  1200.9 secs   av.it.:  10.8
      thresh= 1.036E-05 alpha_mix =  0.700 |ddv_scf|^2 =  7.280E-11

      iter #   5 total cpu time :  1204.0 secs   av.it.:  11.1
      thresh= 8.532E-07 alpha_mix =  0.700 |ddv_scf|^2 =  6.908E-13

      iter #   6 total cpu time :  1207.3 secs   av.it.:  11.2
      thresh= 8.312E-08 alpha_mix =  0.700 |ddv_scf|^2 =  1.214E-14

      iter #   7 total cpu time :  1208.5 secs   av.it.:  11.1
      thresh= 1.102E-08 alpha_mix =  0.700 |ddv_scf|^2 =  7.273E-16

     End of self-consistent calculation

     Convergence has been achieved 
 
     Number of q in the star =   12
     List of q in the star:
          1  -0.333333333  -1.000000000   0.000000000
          2   0.000000000  -1.000000000  -0.333333333
          3   0.000000000  -1.000000000   0.333333333
          4   0.333333333  -1.000000000   0.000000000
          5  -1.000000000   0.000000000  -0.333333333
          6   1.000000000   0.000000000   0.333333333
          7   0.000000000   0.333333333   1.000000000
          8   0.000000000  -0.333333333  -1.000000000
          9  -1.000000000  -0.333333333   0.000000000
         10   1.000000000   0.333333333   0.000000000
         11  -0.333333333   0.000000000   1.000000000
         12   0.333333333   0.000000000   1.000000000

     Diagonalizing the dynamical matrix

     q = (   -0.333333333  -1.000000000   0.000000000 ) 

 **************************************************************************
     freq (    1) =       5.494601 [THz] =     183.280177 [cm-1]
     freq (    2) =       5.494601 [THz] =     183.280177 [cm-1]
     freq (    3) =      10.966364 [THz] =     365.798520 [cm-1]
     freq (    4) =      10.966364 [THz] =     365.798520 [cm-1]
     freq (    5) =      14.002155 [THz] =     467.061607 [cm-1]
     freq (    6) =      14.002155 [THz] =     467.061607 [cm-1]
 **************************************************************************
 
     init_run     :      1.28s CPU      1.38s WALL (      15 calls)
     electrons    :     18.60s CPU     18.92s WALL (      15 calls)

     Called by init_run:
     wfcinit      :      0.00s CPU      0.04s WALL (      15 calls)
     potinit      :      0.07s CPU      0.08s WALL (      15 calls)
     hinit0       :      0.36s CPU      0.36s WALL (      15 calls)

     Called by electrons:
     c_bands      :     18.60s CPU     18.91s WALL (      15 calls)
     v_of_rho     :      0.05s CPU      0.05s WALL (      16 calls)

     Called by c_bands:
     init_us_2    :      4.45s CPU      4.65s WALL (    9969 calls)
     init_us_2:cp :      4.42s CPU      4.62s WALL (    9969 calls)
     cegterg      :     13.93s CPU     14.14s WALL (     328 calls)

     Called by *egterg:
     cdiaghg      :      0.36s CPU      0.37s WALL (    4757 calls)
     h_psi        :    259.34s CPU    264.03s WALL (  100578 calls)
     g_psi        :      0.14s CPU      0.14s WALL (    4429 calls)

     Called by h_psi:
     h_psi:calbec :     18.42s CPU     18.74s WALL (  100578 calls)
     vloc_psi     :    222.44s CPU    226.49s WALL (  100578 calls)
     add_vuspsi   :     16.84s CPU     17.19s WALL (  100578 calls)

     General routines
     calbec       :     32.99s CPU     33.67s WALL (  201721 calls)
     fft          :      1.68s CPU      1.71s WALL (    3717 calls)
     ffts         :      0.76s CPU      0.78s WALL (    1464 calls)
     fftw         :    227.98s CPU    232.72s WALL (  854458 calls)
     davcio       :      2.28s CPU     12.39s WALL (   46934 calls)
 
     Parallel routines
 
     PHONON       :  12m18.82s CPU  20m10.77s WALL

     INITIALIZATION: 
     phq_setup    :      0.13s CPU      2.68s WALL (      16 calls)
     phq_init     :      7.01s CPU      7.75s WALL (      16 calls)
 
     phq_init     :      7.01s CPU      7.75s WALL (      16 calls)
     set_drhoc    :      4.52s CPU      4.53s WALL (      48 calls)
     init_vloc    :      0.03s CPU      0.04s WALL (      16 calls)
     init_us_1    :      0.13s CPU      0.13s WALL (      16 calls)
     init_us_2    :      4.45s CPU      4.65s WALL (    9969 calls)
 
     DYNAMICAL MATRIX:
     dynmat0      :      3.84s CPU      4.54s WALL (      16 calls)
     phqscf       :    696.81s CPU   1134.61s WALL (      16 calls)
     dynmatrix    :      4.56s CPU      5.88s WALL (      16 calls)
 
     phqscf       :    696.81s CPU   1134.61s WALL (      16 calls)
     solve_linter :    695.20s CPU   1111.17s WALL (      76 calls)
     drhodv       :      1.50s CPU      1.55s WALL (      76 calls)
 
     dynmat0      :      3.84s CPU      4.54s WALL (      16 calls)
     dynmat_us    :      0.50s CPU      0.51s WALL (      16 calls)
     d2ionq       :      0.04s CPU      0.04s WALL (      16 calls)
     dynmatcc     :      3.08s CPU      3.08s WALL (      16 calls)
 
     dynmat_us    :      0.50s CPU      0.51s WALL (      16 calls)
 
     phqscf       :    696.81s CPU   1134.61s WALL (      16 calls)
     solve_linter :    695.20s CPU   1111.17s WALL (      76 calls)
 
     solve_linter :    695.20s CPU   1111.17s WALL (      76 calls)
     dvqpsi_us    :      4.10s CPU      4.27s WALL (    1008 calls)
     sth_kernel   :    351.70s CPU    361.52s WALL (     605 calls)
     apply_dpot_b :     18.47s CPU     19.20s WALL (    7156 calls)
     ortho        :      0.73s CPU      0.76s WALL (    8164 calls)
     cgsolve      :    278.43s CPU    283.53s WALL (    8164 calls)
     incdrhoscf   :     22.06s CPU     22.72s WALL (    8158 calls)
     dv_of_drho   :      1.42s CPU      1.43s WALL (     735 calls)
     mix_pot      :      7.67s CPU    262.31s WALL (     605 calls)
     psymdvscf    :      8.82s CPU      8.87s WALL (     600 calls)
 
     dvqpsi_us    :      4.10s CPU      4.27s WALL (    1008 calls)
     dvqpsi_us_on :      0.83s CPU      0.86s WALL (    1008 calls)
 
     cgsolve      :    278.43s CPU    283.53s WALL (    8164 calls)
     ch_psi       :    270.87s CPU    275.75s WALL (   95493 calls)
 
     ch_psi       :    270.87s CPU    275.75s WALL (   95493 calls)
     h_psi        :    259.34s CPU    264.03s WALL (  100578 calls)
     last         :     22.67s CPU     23.09s WALL (   95493 calls)
 
     h_psi        :    259.34s CPU    264.03s WALL (  100578 calls)
     add_vuspsi   :     16.84s CPU     17.19s WALL (  100578 calls)
 
     incdrhoscf   :     22.06s CPU     22.72s WALL (    8158 calls)
 
 
      General routines
     calbec       :     32.99s CPU     33.67s WALL (  201721 calls)
     fft          :      1.68s CPU      1.71s WALL (    3717 calls)
     ffts         :      0.76s CPU      0.78s WALL (    1464 calls)
     fftw         :    227.98s CPU    232.72s WALL (  854458 calls)
     davcio       :      2.28s CPU     12.39s WALL (   46934 calls)
     write_rec    :      5.10s CPU    181.91s WALL (     681 calls)
 
 
     PHONON       :  12m18.82s CPU  20m10.77s WALL

 
   This run was terminated on:  19:17: 7  17May2022            

=------------------------------------------------------------------------------=
   JOB DONE.
=------------------------------------------------------------------------------=
real 1214.45
user 16505.56
sys 196.43
