
     Program PHONON v.7.0 starts on  8Jun2022 at  0:16:27 

     This program is part of the open-source Quantum ESPRESSO suite
     for quantum simulation of materials; please cite
         "P. Giannozzi et al., J. Phys.:Condens. Matter 21 395502 (2009);
         "P. Giannozzi et al., J. Phys.:Condens. Matter 29 465901 (2017);
         "P. Giannozzi et al., J. Chem. Phys. 152 154105 (2020);
          URL http://www.quantum-espresso.org", 
     in publications or presentations arising from this work. More details at
     http://www.quantum-espresso.org/quote

     Parallel version (MPI), running on   108 processors

     MPI processes distributed on     6 nodes
     path-images division:  nimage    =       2
     K-points division:     npool     =       3
     R & G space division:  proc/nbgrp/npool/nimage =      18
     42026 MiB available memory on the printing compute node when the environment starts
 
     Reading input from /fastscratch/tsievers/TaS2_24_ph_benchmark_images/TaS2_24_ph_bench_nimages_2_n_procs_108_0.ph

     Reading xml data from directory:

     /fastscratch/tsievers/QE_TMP_DIR/TaS2_24_ph_bench_nimages_2_n_procs_108_0.save/

     IMPORTANT: XC functional enforced from input :
     Exchange-correlation= PBE
                           (   1   4   3   4   0   0   0)
     Any further DFT definition will be discarded
     Please, verify this is what you really want

 
     Parallelization info
     --------------------
     sticks:   dense  smooth     PW     G-vecs:    dense   smooth      PW
     Min          60      31      9                 7329     2593     419
     Max          62      32     10                 7342     2605     434
     Sum        1099     559    163               132031    46753    7647
 
     Using Slab Decomposition
 
 ----2D----2D----2D----2D----2D----2D----2D----2D----2D----2D----2D----2D
  The code is running with the 2D cutoff
  Please refer to:
  Sohier, T., Calandra, M., & Mauri, F. (2017), 
  Density functional perturbation theory for gated two-dimensional heterostructu
 res:
  Theoretical developments and application to flexural phonons in graphene.
  Physical Review B, 96(7), 75448. https://doi.org/10.1103/PhysRevB.96.075448
 ----2D----2D----2D----2D----2D----2D----2D----2D----2D----2D----2D----2D
     Reading collected, re-writing distributed wavefunctions


     Dynamical matrices for (12,12, 1)  uniform grid of q-points
     (  19 q-points):
       N         xq(1)         xq(2)         xq(3) 
       1   0.000000000   0.000000000   0.000000000
       2   0.000000000   0.096225045   0.000000000
       3   0.000000000   0.192450090   0.000000000
       4   0.000000000   0.288675135   0.000000000
       5   0.000000000   0.384900179   0.000000000
       6   0.000000000   0.481125224   0.000000000
       7   0.000000000  -0.577350269   0.000000000
       8   0.083333333   0.144337567   0.000000000
       9   0.083333333   0.240562612   0.000000000
      10   0.083333333   0.336787657   0.000000000
      11   0.083333333   0.433012702   0.000000000
      12   0.083333333   0.529237747   0.000000000
      13   0.166666667   0.288675135   0.000000000
      14   0.166666667   0.384900179   0.000000000
      15   0.166666667   0.481125224   0.000000000
      16   0.166666667   0.577350269   0.000000000
      17   0.250000000   0.433012702   0.000000000
      18   0.250000000   0.529237747   0.000000000
      19   0.333333333   0.577350269   0.000000000

     Saving dvscf to file. Distribute only q points, not irreducible represetations.

      Image parallelization. There are  2 images and     2 representations
      The estimated total work is   870 self-consistent (scf) runs
      I am image number     0 and my work is about  430 scf runs. I calculate: 
      q point number     1, representations:
       0 1 2 3 4 5 6
      q point number     2, representations:
       0 1 2 3 4 5 6 7 8 9
      q point number     3, representations:
       0 1 2 3 4 5 6 7 8 9
      q point number     4, representations:
       0 1 2 3 4 5 6 7 8 9
      q point number     5, representations:
       0 1 2 3 4 5 6 7 8 9
      q point number     6, representations:
       0 1 2 3 4 5 6 7 8 9
      q point number     7, representations:
       0 1 2 3 4 5 6 7 8 9
      q point number     8, representations:
       0 1 2 3 4 5 6 7 8 9
      q point number     9, representations:
       0 1 2 3 4 5 6 7 8 9
      q point number    10, representations:
       0 1 2 3 4 5 6 7 8 9
      q point number    11, representations:
       0 1 2 3 4 5 6 7 8 9

     Calculation of q =    0.0000000   0.0000000   0.0000000

     TaS2                                                                       

     bravais-lattice index     =            4
     lattice parameter (alat)  =       6.3117  a.u.
     unit-cell volume          =     977.9382 (a.u.)^3
     number of atoms/cell      =            3
     number of atomic types    =            2
     kinetic-energy cut-off    =      50.0000  Ry
     charge density cut-off    =     400.0000  Ry
     convergence threshold     =      1.0E-21
     beta                      =       0.7000
     number of iterations used =            4
     Exchange-correlation= PBE
                           (   1   4   3   4   0   0   0)


     celldm(1)=    6.31169  celldm(2)=    0.00000  celldm(3)=    4.49102
     celldm(4)=    0.00000  celldm(5)=    0.00000  celldm(6)=    0.00000

     crystal axes: (cart. coord. in units of alat)
               a(1) = (  1.0000  0.0000  0.0000 )  
               a(2) = ( -0.5000  0.8660  0.0000 )  
               a(3) = (  0.0000  0.0000  4.4910 )  

     reciprocal axes: (cart. coord. in units 2 pi/alat)
               b(1) = (  1.0000  0.5774  0.0000 )  
               b(2) = (  0.0000  1.1547  0.0000 )  
               b(3) = (  0.0000  0.0000  0.2227 )  


     Atoms inside the unit cell: 

     Cartesian axes

     site n.  atom      mass           positions (alat units)
        1     S   32.0600   tau(    1) = (   -0.00000    0.57735    0.46790  )
        2     Ta 180.9500   tau(    2) = (    0.00000    0.00000    0.00000  )
        3     S   32.0600   tau(    3) = (   -0.00000    0.57735   -0.46790  )

     Computing dynamical matrix for 
                    q = (   0.0000000   0.0000000   0.0000000 )
 
     13 Sym.Ops. (with q -> -q+G )


     G cutoff =  403.6370  (   7330 G-vectors)     FFT grid: ( 45, 45,192)
     G cutoff =  201.8185  (   2599 G-vectors)  smooth grid: ( 30, 30,128)

     number of k points=    61  Marzari-Vanderbilt smearing, width (Ry)=  0.0060

     PseudoPot. # 1 for Ta read from file:
     /fastscratch/tsievers/TaS2_24_ph_benchmark_images//pseudos/Ta.pbe-hgh.UPF
     MD5 check sum: 129c51a9a4223465c43ca8d238d17e53
     Pseudo is Norm-conserving, Zval =  5.0
     Generated in analytical, separable form
     Using radial grid of 1273 points,  6 beta functions with: 
                l(1) =   0
                l(2) =   0
                l(3) =   1
                l(4) =   1
                l(5) =   2
                l(6) =   2

     PseudoPot. # 2 for S  read from file:
     /fastscratch/tsievers/TaS2_24_ph_benchmark_images//pseudos/S.pbe-hgh.UPF
     MD5 check sum: 3a21e384b95a7cc84d045d3bcc0c4ba8
     Pseudo is Norm-conserving, Zval =  6.0
     Generated in analytical, separable form
     Using radial grid of 1151 points,  3 beta functions with: 
                l(1) =   0
                l(2) =   0
                l(3) =   1

     Mode symmetry, D_3h (-62m) point group:


     Atomic displacements:
     There are    6 irreducible representations

     Representation     1      1 modes -  To be done

     Representation     2      2 modes -  To be done

     Representation     3      2 modes -  To be done

     Representation     4      1 modes -  To be done

     Representation     5      1 modes -  To be done

     Representation     6      2 modes -  To be done



     Alpha used in Ewald sum =   2.8000
     PHONON       :      1.66s CPU      3.28s WALL



     Representation #   1 mode #   1

     Self-consistent Calculation
 
     Pert. #  1: Fermi energy shift (Ry) =    -2.3654E+00    -3.3881E-20

      iter #   1 total cpu time :     4.4 secs   av.it.:   9.1
      thresh= 1.000E-02 alpha_mix =  0.700 |ddv_scf|^2 =  3.675E-05
 
     Pert. #  1: Fermi energy shift (Ry) =     5.2009E+00     4.7646E-22

      iter #   2 total cpu time :     5.9 secs   av.it.:  15.1
      thresh= 6.062E-04 alpha_mix =  0.700 |ddv_scf|^2 =  2.117E-04
 
     Pert. #  1: Fermi energy shift (Ry) =    -2.3846E-01    -1.9058E-21

      iter #   3 total cpu time :     7.6 secs   av.it.:  13.3
      thresh= 1.455E-03 alpha_mix =  0.700 |ddv_scf|^2 =  8.227E-07
 
     Pert. #  1: Fermi energy shift (Ry) =     3.6104E-02     5.9557E-23

      iter #   4 total cpu time :     9.9 secs   av.it.:  14.0
      thresh= 9.070E-05 alpha_mix =  0.700 |ddv_scf|^2 =  4.243E-08
 
     Pert. #  1: Fermi energy shift (Ry) =    -2.2914E-02    -5.7903E-24

      iter #   5 total cpu time :    11.3 secs   av.it.:  13.7
      thresh= 2.060E-05 alpha_mix =  0.700 |ddv_scf|^2 =  3.499E-11
 
     Pert. #  1: Fermi energy shift (Ry) =    -2.4895E-02     4.6529E-25

      iter #   6 total cpu time :    12.8 secs   av.it.:  14.6
      thresh= 5.916E-07 alpha_mix =  0.700 |ddv_scf|^2 =  3.492E-13
 
     Pert. #  1: Fermi energy shift (Ry) =    -2.5270E-02     7.7548E-26

      iter #   7 total cpu time :    14.8 secs   av.it.:  12.8
      thresh= 5.909E-08 alpha_mix =  0.700 |ddv_scf|^2 =  9.455E-15
 
     Pert. #  1: Fermi energy shift (Ry) =    -2.5355E-02    -8.8857E-27

      iter #   8 total cpu time :    17.1 secs   av.it.:  15.1
      thresh= 9.724E-09 alpha_mix =  0.700 |ddv_scf|^2 =  2.910E-16
 
     Pert. #  1: Fermi energy shift (Ry) =    -2.5344E-02    -4.0390E-28

      iter #   9 total cpu time :    19.3 secs   av.it.:  15.0
      thresh= 1.706E-09 alpha_mix =  0.700 |ddv_scf|^2 =  2.244E-16
 
     Pert. #  1: Fermi energy shift (Ry) =    -2.5338E-02     7.0682E-28

      iter #  10 total cpu time :    21.5 secs   av.it.:  13.9
      thresh= 1.498E-09 alpha_mix =  0.700 |ddv_scf|^2 =  6.032E-18
 
     Pert. #  1: Fermi energy shift (Ry) =    -2.5340E-02     3.0292E-28

      iter #  11 total cpu time :    24.1 secs   av.it.:  15.2
      thresh= 2.456E-10 alpha_mix =  0.700 |ddv_scf|^2 =  3.195E-21
 
     Pert. #  1: Fermi energy shift (Ry) =    -2.5340E-02     5.0487E-28

      iter #  12 total cpu time :    25.9 secs   av.it.:  15.0
      thresh= 5.653E-12 alpha_mix =  0.700 |ddv_scf|^2 =  1.650E-22

     End of self-consistent calculation

     Convergence has been achieved 


     Representation #   2 modes #   2   3

     Self-consistent Calculation
 
     Pert. #  1: Fermi energy shift (Ry) =     1.4456E-18     1.8808E-36
     Pert. #  2: Fermi energy shift (Ry) =    -1.7347E-18    -3.1347E-37

      iter #   1 total cpu time :    28.1 secs   av.it.:   6.9
      thresh= 1.000E-02 alpha_mix =  0.700 |ddv_scf|^2 =  1.736E-09
 
     Pert. #  1: Fermi energy shift (Ry) =     2.3130E-18    -1.1020E-39
     Pert. #  2: Fermi energy shift (Ry) =     8.6736E-19    -6.1224E-40

      iter #   2 total cpu time :    31.6 secs   av.it.:  17.1
      thresh= 4.166E-06 alpha_mix =  0.700 |ddv_scf|^2 =  1.189E-10
 
     Pert. #  1: Fermi energy shift (Ry) =     2.6021E-18     6.1224E-40
     Pert. #  2: Fermi energy shift (Ry) =     2.6021E-18     4.2857E-40

      iter #   3 total cpu time :    35.7 secs   av.it.:  16.6
      thresh= 1.090E-06 alpha_mix =  0.700 |ddv_scf|^2 =  1.226E-11
 
     Pert. #  1: Fermi energy shift (Ry) =     2.0238E-18    -9.1835E-41
     Pert. #  2: Fermi energy shift (Ry) =     8.6736E-19     6.1224E-41

      iter #   4 total cpu time :    40.9 secs   av.it.:  16.7
      thresh= 3.501E-07 alpha_mix =  0.700 |ddv_scf|^2 =  2.266E-13
 
     Pert. #  1: Fermi energy shift (Ry) =     2.0238E-18     3.4438E-41
     Pert. #  2: Fermi energy shift (Ry) =     5.7824E-19     1.9132E-41

      iter #   5 total cpu time :    44.6 secs   av.it.:  17.0
      thresh= 4.760E-08 alpha_mix =  0.700 |ddv_scf|^2 =  3.638E-15
 
     Pert. #  1: Fermi energy shift (Ry) =     1.4456E-18    -5.9789E-43
     Pert. #  2: Fermi energy shift (Ry) =     1.4456E-18    -1.0762E-42

      iter #   6 total cpu time :    47.8 secs   av.it.:  17.2
      thresh= 6.032E-09 alpha_mix =  0.700 |ddv_scf|^2 =  2.452E-17
 
     Pert. #  1: Fermi energy shift (Ry) =     8.6736E-19    -4.4842E-44
     Pert. #  2: Fermi energy shift (Ry) =     8.6736E-19     1.4947E-44

      iter #   7 total cpu time :    50.9 secs   av.it.:  17.3
      thresh= 4.951E-10 alpha_mix =  0.700 |ddv_scf|^2 =  5.306E-19
 
     Pert. #  1: Fermi energy shift (Ry) =     1.1565E-18     7.4736E-45
     Pert. #  2: Fermi energy shift (Ry) =     5.7824E-19     7.4736E-45

      iter #   8 total cpu time :    55.9 secs   av.it.:  16.4
      thresh= 7.285E-11 alpha_mix =  0.700 |ddv_scf|^2 =  8.869E-21
 
     Pert. #  1: Fermi energy shift (Ry) =     2.6021E-18     5.2315E-44
     Pert. #  2: Fermi energy shift (Ry) =     5.7824E-19     2.2421E-44

      iter #   9 total cpu time :    59.6 secs   av.it.:  16.3
      thresh= 9.418E-12 alpha_mix =  0.700 |ddv_scf|^2 =  4.364E-23

     End of self-consistent calculation

     Convergence has been achieved 


     Representation #   3 modes #   4   5

     Self-consistent Calculation
 
     Pert. #  1: Fermi energy shift (Ry) =    -8.6736E-19    -2.5077E-37
     Pert. #  2: Fermi energy shift (Ry) =     1.4456E-19    -1.2539E-37

      iter #   1 total cpu time :    62.8 secs   av.it.:   7.8
      thresh= 1.000E-02 alpha_mix =  0.700 |ddv_scf|^2 =  1.530E-08
 
     Pert. #  1: Fermi energy shift (Ry) =     2.8912E-19     1.2245E-40
     Pert. #  2: Fermi energy shift (Ry) =    -2.8912E-19     8.5713E-40

      iter #   2 total cpu time :    66.7 secs   av.it.:  17.3
      thresh= 1.237E-05 alpha_mix =  0.700 |ddv_scf|^2 =  1.612E-09
 
     Pert. #  1: Fermi energy shift (Ry) =     5.7824E-19    -6.1224E-41
     Pert. #  2: Fermi energy shift (Ry) =    -1.4456E-18    -4.2857E-40

      iter #   3 total cpu time :    71.3 secs   av.it.:  17.0
      thresh= 4.015E-06 alpha_mix =  0.700 |ddv_scf|^2 =  5.840E-11
 
     Pert. #  1: Fermi energy shift (Ry) =    -5.7824E-19     3.0612E-41
     Pert. #  2: Fermi energy shift (Ry) =    -2.8912E-19     1.5306E-41

      iter #   4 total cpu time :    75.0 secs   av.it.:  15.4
      thresh= 7.642E-07 alpha_mix =  0.700 |ddv_scf|^2 =  2.109E-14
 
     Pert. #  1: Fermi energy shift (Ry) =    -2.0238E-18     4.7831E-43
     Pert. #  2: Fermi energy shift (Ry) =    -4.3368E-19    -9.5662E-43

      iter #   5 total cpu time :    79.2 secs   av.it.:  16.6
      thresh= 1.452E-08 alpha_mix =  0.700 |ddv_scf|^2 =  9.088E-16
 
     Pert. #  1: Fermi energy shift (Ry) =    -1.7347E-18     2.9894E-44
     Pert. #  2: Fermi energy shift (Ry) =    -8.6736E-19     2.0926E-43

      iter #   6 total cpu time :    83.0 secs   av.it.:  17.0
      thresh= 3.015E-09 alpha_mix =  0.700 |ddv_scf|^2 =  1.481E-17
 
     Pert. #  1: Fermi energy shift (Ry) =    -1.4456E-18     1.4947E-44
     Pert. #  2: Fermi energy shift (Ry) =     1.4456E-19     0.0000E+00

      iter #   7 total cpu time :    86.5 secs   av.it.:  17.3
      thresh= 3.848E-10 alpha_mix =  0.700 |ddv_scf|^2 =  1.927E-19
 
     Pert. #  1: Fermi energy shift (Ry) =    -1.1565E-18     1.4947E-44
     Pert. #  2: Fermi energy shift (Ry) =     0.0000E+00     0.0000E+00

      iter #   8 total cpu time :    90.2 secs   av.it.:  17.3
      thresh= 4.390E-11 alpha_mix =  0.700 |ddv_scf|^2 =  3.089E-21
 
     Pert. #  1: Fermi energy shift (Ry) =    -1.4456E-18     1.4947E-44
     Pert. #  2: Fermi energy shift (Ry) =    -1.1565E-18     0.0000E+00

      iter #   9 total cpu time :    93.7 secs   av.it.:  17.5
      thresh= 5.558E-12 alpha_mix =  0.700 |ddv_scf|^2 =  4.303E-23

     End of self-consistent calculation

     Convergence has been achieved 


     Representation #   4 mode #   6

     Self-consistent Calculation
 
     Pert. #  1: Fermi energy shift (Ry) =     0.0000E+00     0.0000E+00

      iter #   1 total cpu time :    97.3 secs   av.it.:   8.6
      thresh= 1.000E-02 alpha_mix =  0.700 |ddv_scf|^2 =  1.561E-04
 
     Pert. #  1: Fermi energy shift (Ry) =     0.0000E+00     0.0000E+00

      iter #   2 total cpu time :   101.0 secs   av.it.:  14.5
      thresh= 1.249E-03 alpha_mix =  0.700 |ddv_scf|^2 =  6.890E-03
 
     Pert. #  1: Fermi energy shift (Ry) =     0.0000E+00     0.0000E+00

      iter #   3 total cpu time :   103.1 secs   av.it.:  11.1
      thresh= 8.301E-03 alpha_mix =  0.700 |ddv_scf|^2 =  1.499E-08
 
     Pert. #  1: Fermi energy shift (Ry) =     0.0000E+00     0.0000E+00

      iter #   4 total cpu time :   105.2 secs   av.it.:  15.5
      thresh= 1.224E-05 alpha_mix =  0.700 |ddv_scf|^2 =  5.041E-08
 
     Pert. #  1: Fermi energy shift (Ry) =     0.0000E+00     0.0000E+00

      iter #   5 total cpu time :   107.0 secs   av.it.:  12.9
      thresh= 2.245E-05 alpha_mix =  0.700 |ddv_scf|^2 =  1.054E-09
 
     Pert. #  1: Fermi energy shift (Ry) =     0.0000E+00     0.0000E+00

      iter #   6 total cpu time :   108.4 secs   av.it.:  12.5
      thresh= 3.247E-06 alpha_mix =  0.700 |ddv_scf|^2 =  1.844E-10
 
     Pert. #  1: Fermi energy shift (Ry) =     0.0000E+00     0.0000E+00

      iter #   7 total cpu time :   109.8 secs   av.it.:  11.8
      thresh= 1.358E-06 alpha_mix =  0.700 |ddv_scf|^2 =  4.091E-13
 
     Pert. #  1: Fermi energy shift (Ry) =     0.0000E+00     0.0000E+00

      iter #   8 total cpu time :   112.2 secs   av.it.:  12.1
      thresh= 6.396E-08 alpha_mix =  0.700 |ddv_scf|^2 =  2.360E-16
 
     Pert. #  1: Fermi energy shift (Ry) =     0.0000E+00     0.0000E+00

      iter #   9 total cpu time :   114.5 secs   av.it.:  15.4
      thresh= 1.536E-09 alpha_mix =  0.700 |ddv_scf|^2 =  7.896E-16
 
     Pert. #  1: Fermi energy shift (Ry) =     0.0000E+00     0.0000E+00

      iter #  10 total cpu time :   116.3 secs   av.it.:  11.3
      thresh= 2.810E-09 alpha_mix =  0.700 |ddv_scf|^2 =  2.143E-16
 
     Pert. #  1: Fermi energy shift (Ry) =     0.0000E+00     0.0000E+00

      iter #  11 total cpu time :   117.9 secs   av.it.:  11.8
      thresh= 1.464E-09 alpha_mix =  0.700 |ddv_scf|^2 =  8.049E-19
 
     Pert. #  1: Fermi energy shift (Ry) =     0.0000E+00     0.0000E+00

      iter #  12 total cpu time :   120.5 secs   av.it.:  11.9
      thresh= 8.972E-11 alpha_mix =  0.700 |ddv_scf|^2 =  1.059E-21
 
     Pert. #  1: Fermi energy shift (Ry) =     0.0000E+00     0.0000E+00

      iter #  13 total cpu time :   122.5 secs   av.it.:  14.1
      thresh= 3.254E-12 alpha_mix =  0.700 |ddv_scf|^2 =  1.385E-21
 
     Pert. #  1: Fermi energy shift (Ry) =     0.0000E+00     0.0000E+00

      iter #  14 total cpu time :   123.5 secs   av.it.:  11.5
      thresh= 3.721E-12 alpha_mix =  0.700 |ddv_scf|^2 =  3.891E-24

     End of self-consistent calculation

     Convergence has been achieved 


     Representation #   5 mode #   7

     Self-consistent Calculation
 
     Pert. #  1: Fermi energy shift (Ry) =     0.0000E+00     0.0000E+00

      iter #   1 total cpu time :   125.1 secs   av.it.:   8.8
      thresh= 1.000E-02 alpha_mix =  0.700 |ddv_scf|^2 =  2.721E-04
 
     Pert. #  1: Fermi energy shift (Ry) =     0.0000E+00     0.0000E+00

      iter #   2 total cpu time :   126.8 secs   av.it.:  14.4
      thresh= 1.649E-03 alpha_mix =  0.700 |ddv_scf|^2 =  1.145E-02
 
     Pert. #  1: Fermi energy shift (Ry) =     0.0000E+00     0.0000E+00

      iter #   3 total cpu time :   128.1 secs   av.it.:  11.2
      thresh= 1.000E-02 alpha_mix =  0.700 |ddv_scf|^2 =  3.719E-06
 
     Pert. #  1: Fermi energy shift (Ry) =     0.0000E+00     0.0000E+00

      iter #   4 total cpu time :   131.0 secs   av.it.:  13.2
      thresh= 1.928E-04 alpha_mix =  0.700 |ddv_scf|^2 =  6.135E-07
 
     Pert. #  1: Fermi energy shift (Ry) =     0.0000E+00     0.0000E+00

      iter #   5 total cpu time :   134.0 secs   av.it.:  12.5
      thresh= 7.833E-05 alpha_mix =  0.700 |ddv_scf|^2 =  2.649E-10
 
     Pert. #  1: Fermi energy shift (Ry) =     0.0000E+00     0.0000E+00

      iter #   6 total cpu time :   135.8 secs   av.it.:  12.4
      thresh= 1.628E-06 alpha_mix =  0.700 |ddv_scf|^2 =  7.378E-12
 
     Pert. #  1: Fermi energy shift (Ry) =     0.0000E+00     0.0000E+00

      iter #   7 total cpu time :   138.1 secs   av.it.:  12.4
      thresh= 2.716E-07 alpha_mix =  0.700 |ddv_scf|^2 =  4.116E-13
 
     Pert. #  1: Fermi energy shift (Ry) =     0.0000E+00     0.0000E+00

      iter #   8 total cpu time :   139.9 secs   av.it.:  12.0
      thresh= 6.415E-08 alpha_mix =  0.700 |ddv_scf|^2 =  4.353E-15
 
     Pert. #  1: Fermi energy shift (Ry) =     0.0000E+00     0.0000E+00

      iter #   9 total cpu time :   141.9 secs   av.it.:  12.7
      thresh= 6.598E-09 alpha_mix =  0.700 |ddv_scf|^2 =  1.461E-16
 
     Pert. #  1: Fermi energy shift (Ry) =     0.0000E+00     0.0000E+00

      iter #  10 total cpu time :   143.5 secs   av.it.:  11.5
      thresh= 1.209E-09 alpha_mix =  0.700 |ddv_scf|^2 =  3.959E-17
 
     Pert. #  1: Fermi energy shift (Ry) =     0.0000E+00     0.0000E+00

      iter #  11 total cpu time :   144.8 secs   av.it.:  12.0
      thresh= 6.292E-10 alpha_mix =  0.700 |ddv_scf|^2 =  5.023E-20
 
     Pert. #  1: Fermi energy shift (Ry) =     0.0000E+00     0.0000E+00

      iter #  12 total cpu time :   147.5 secs   av.it.:  14.2
      thresh= 2.241E-11 alpha_mix =  0.700 |ddv_scf|^2 =  1.238E-19
 
     Pert. #  1: Fermi energy shift (Ry) =     0.0000E+00     0.0000E+00

      iter #  13 total cpu time :   149.5 secs   av.it.:  11.9
      thresh= 3.518E-11 alpha_mix =  0.700 |ddv_scf|^2 =  8.237E-21
 
     Pert. #  1: Fermi energy shift (Ry) =     0.0000E+00     0.0000E+00

      iter #  14 total cpu time :   150.6 secs   av.it.:  11.9
      thresh= 9.076E-12 alpha_mix =  0.700 |ddv_scf|^2 =  1.076E-24

     End of self-consistent calculation

     Convergence has been achieved 


     Representation #   6 modes #   8   9

     Self-consistent Calculation
 
     Pert. #  1: Fermi energy shift (Ry) =     0.0000E+00     2.6785E-41
     Pert. #  2: Fermi energy shift (Ry) =    -3.2312E-27     1.1479E-41

      iter #   1 total cpu time :   152.9 secs   av.it.:   7.8
      thresh= 1.000E-02 alpha_mix =  0.700 |ddv_scf|^2 =  1.295E-08
 
     Pert. #  1: Fermi energy shift (Ry) =    -5.3853E-28    -1.0463E-43
     Pert. #  2: Fermi energy shift (Ry) =     0.0000E+00     1.8684E-44

      iter #   2 total cpu time :   156.4 secs   av.it.:  17.3
      thresh= 1.138E-05 alpha_mix =  0.700 |ddv_scf|^2 =  1.152E-09
 
     Pert. #  1: Fermi energy shift (Ry) =    -5.3853E-28    -2.9894E-44
     Pert. #  2: Fermi energy shift (Ry) =     8.0779E-28     0.0000E+00

      iter #   3 total cpu time :   161.1 secs   av.it.:  16.9
      thresh= 3.394E-06 alpha_mix =  0.700 |ddv_scf|^2 =  5.407E-11
 
     Pert. #  1: Fermi energy shift (Ry) =    -2.6926E-28    -4.2039E-45
     Pert. #  2: Fermi energy shift (Ry) =     1.3463E-28     4.6710E-46

      iter #   4 total cpu time :   164.7 secs   av.it.:  15.4
      thresh= 7.353E-07 alpha_mix =  0.700 |ddv_scf|^2 =  1.480E-14
 
     Pert. #  1: Fermi energy shift (Ry) =    -2.6926E-28     1.8684E-44
     Pert. #  2: Fermi energy shift (Ry) =     5.3853E-28    -2.6158E-44

      iter #   5 total cpu time :   169.4 secs   av.it.:  16.5
      thresh= 1.216E-08 alpha_mix =  0.700 |ddv_scf|^2 =  6.501E-16
 
     Pert. #  1: Fermi energy shift (Ry) =    -8.0779E-28    -4.4842E-44
     Pert. #  2: Fermi energy shift (Ry) =    -8.0779E-28     0.0000E+00

      iter #   6 total cpu time :   173.2 secs   av.it.:  16.0
      thresh= 2.550E-09 alpha_mix =  0.700 |ddv_scf|^2 =  1.811E-18
 
     Pert. #  1: Fermi energy shift (Ry) =    -5.3853E-28    -4.4842E-44
     Pert. #  2: Fermi energy shift (Ry) =     0.0000E+00     0.0000E+00

      iter #   7 total cpu time :   176.7 secs   av.it.:  17.4
      thresh= 1.346E-10 alpha_mix =  0.700 |ddv_scf|^2 =  7.505E-20
 
     Pert. #  1: Fermi energy shift (Ry) =    -5.3853E-28    -4.4842E-44
     Pert. #  2: Fermi energy shift (Ry) =     4.0390E-28     0.0000E+00

      iter #   8 total cpu time :   180.6 secs   av.it.:  17.6
      thresh= 2.739E-11 alpha_mix =  0.700 |ddv_scf|^2 =  2.942E-21
 
     Pert. #  1: Fermi energy shift (Ry) =    -2.6926E-28    -4.4842E-44
     Pert. #  2: Fermi energy shift (Ry) =     4.0390E-28     0.0000E+00

      iter #   9 total cpu time :   183.2 secs   av.it.:  17.4
      thresh= 5.424E-12 alpha_mix =  0.700 |ddv_scf|^2 =  1.487E-22

     End of self-consistent calculation

     Convergence has been achieved 
 
     Number of q in the star =    1
     List of q in the star:
          1   0.000000000   0.000000000   0.000000000

     Diagonalizing the dynamical matrix

     q = (    0.000000000   0.000000000   0.000000000 ) 

 **************************************************************************
     freq (    1) =      -0.667612 [THz] =     -22.269154 [cm-1]
     freq (    2) =      -0.667612 [THz] =     -22.269154 [cm-1]
     freq (    3) =       0.962108 [THz] =      32.092469 [cm-1]
     freq (    4) =       6.823788 [THz] =     227.617071 [cm-1]
     freq (    5) =       6.823788 [THz] =     227.617071 [cm-1]
     freq (    6) =       8.696005 [THz] =     290.067494 [cm-1]
     freq (    7) =       8.696005 [THz] =     290.067494 [cm-1]
     freq (    8) =      11.214795 [THz] =     374.085309 [cm-1]
     freq (    9) =      12.003040 [THz] =     400.378319 [cm-1]
 **************************************************************************

     Mode symmetry, D_3h (-62m) point group:

     freq (   1-   2) =        -22.3  [cm-1]   --> E'              I+R
     freq (   3-   3) =         32.1  [cm-1]   --> A''2            I  
     freq (   4-   5) =        227.6  [cm-1]   --> E''             R  
     freq (   6-   7) =        290.1  [cm-1]   --> E'              I+R
     freq (   8-   8) =        374.1  [cm-1]   --> A''2            I  
     freq (   9-   9) =        400.4  [cm-1]   --> A'_1            R  

     Calculation of q =    0.0000000   0.0962250   0.0000000

     Subspace diagonalization in iterative solution of the eigenvalue problem:
     a serial algorithm will be used

 
     Parallelization info
     --------------------
     sticks:   dense  smooth     PW     G-vecs:    dense   smooth      PW
     Min          60      31      9                 7329     2593     433
     Max          62      32     10                 7342     2605     452
     Sum        1099     559    163               132031    46753    7877
 
     Using Slab Decomposition
 

     Title: 
     TaS2                                                                       


     bravais-lattice index     =            4
     lattice parameter (alat)  =       6.3117  a.u.
     unit-cell volume          =     977.9382 (a.u.)^3
     number of atoms/cell      =            3
     number of atomic types    =            2
     number of electrons       =        17.00
     number of Kohn-Sham states=           13
     kinetic-energy cutoff     =      50.0000  Ry
     charge density cutoff     =     400.0000  Ry
     Exchange-correlation= PBE
                           (   1   4   3   4   0   0   0)

     celldm(1)=   6.311685  celldm(2)=   0.000000  celldm(3)=   4.491018
     celldm(4)=   0.000000  celldm(5)=   0.000000  celldm(6)=   0.000000

     crystal axes: (cart. coord. in units of alat)
               a(1) = (   1.000000   0.000000   0.000000 )  
               a(2) = (  -0.500000   0.866025   0.000000 )  
               a(3) = (   0.000000   0.000000   4.491018 )  

     reciprocal axes: (cart. coord. in units 2 pi/alat)
               b(1) = (  1.000000  0.577350  0.000000 )  
               b(2) = (  0.000000  1.154701  0.000000 )  
               b(3) = (  0.000000  0.000000  0.222667 )  


     PseudoPot. # 1 for Ta read from file:
     /fastscratch/tsievers/TaS2_24_ph_benchmark_images//pseudos/Ta.pbe-hgh.UPF
     MD5 check sum: 129c51a9a4223465c43ca8d238d17e53
     Pseudo is Norm-conserving, Zval =  5.0
     Generated in analytical, separable form
     Using radial grid of 1273 points,  6 beta functions with: 
                l(1) =   0
                l(2) =   0
                l(3) =   1
                l(4) =   1
                l(5) =   2
                l(6) =   2

     PseudoPot. # 2 for S  read from file:
     /fastscratch/tsievers/TaS2_24_ph_benchmark_images//pseudos/S.pbe-hgh.UPF
     MD5 check sum: 3a21e384b95a7cc84d045d3bcc0c4ba8
     Pseudo is Norm-conserving, Zval =  6.0
     Generated in analytical, separable form
     Using radial grid of 1151 points,  3 beta functions with: 
                l(1) =   0
                l(2) =   0
                l(3) =   1

     atomic species   valence    mass     pseudopotential
        Ta             5.00   180.95000     Ta( 1.00)
        S              6.00    32.06000     S ( 1.00)

     12 Sym. Ops. (no inversion) found



   Cartesian axes

     site n.     atom                  positions (alat units)
         1           S   tau(   1) = (  -0.0000000   0.5773503   0.4679048  )
         2           Ta  tau(   2) = (   0.0000000   0.0000000   0.0000000  )
         3           S   tau(   3) = (  -0.0000000   0.5773503  -0.4679048  )

     number of k points=   600  Marzari-Vanderbilt smearing, width (Ry)=  0.0060

     Number of k-points >= 100: set verbosity='high' to print them.

     Dense  grid:   132031 G-vectors     FFT dimensions: (  45,  45, 192)

     Smooth grid:    46753 G-vectors     FFT dimensions: (  30,  30, 128)

     Estimated max dynamical RAM per process >       6.81 MB

     Estimated total dynamical RAM >     368.00 MB
 ----2D----2D----2D----2D----2D----2D----2D----2D----2D----2D----2D----2D
  The code is running with the 2D cutoff
  Please refer to:
  Sohier, T., Calandra, M., & Mauri, F. (2017), 
  Density functional perturbation theory for gated two-dimensional heterostructu
 res:
  Theoretical developments and application to flexural phonons in graphene.
  Physical Review B, 96(7), 75448. https://doi.org/10.1103/PhysRevB.96.075448
 ----2D----2D----2D----2D----2D----2D----2D----2D----2D----2D----2D----2D

     The potential is recalculated from file :
     /fastscratch/tsievers/QE_TMP_DIR/_ph0/TaS2_24_ph_bench_nimages_2_n_procs_108_0.q_2/TaS2_24_ph_bench_nimages_2_n_procs_108_0.save/charge-density

     Starting wfcs are   27 atomic wfcs

     Band Structure Calculation
     Davidson diagonalization with overlap

     ethr =  5.88E-11,  avg # of iterations = 20.5

     total cpu time spent up to now is       18.3 secs

     End of band structure calculation

     Number of k-points >= 100: set verbosity='high' to print the bands.

     the Fermi energy is    -5.8804 ev

     Writing config to output data dir /fastscratch/tsievers/QE_TMP_DIR/_ph0/TaS2_24_ph_bench_nimages_2_n_procs_108_0.q_2/TaS2_24_ph_bench_nimages_2_n_procs_108_0.save/

     TaS2                                                                       

     bravais-lattice index     =            4
     lattice parameter (alat)  =       6.3117  a.u.
     unit-cell volume          =     977.9382 (a.u.)^3
     number of atoms/cell      =            3
     number of atomic types    =            2
     kinetic-energy cut-off    =      50.0000  Ry
     charge density cut-off    =     400.0000  Ry
     convergence threshold     =      1.0E-21
     beta                      =       0.7000
     number of iterations used =            4
     Exchange-correlation= PBE
                           (   1   4   3   4   0   0   0)


     celldm(1)=    6.31169  celldm(2)=    0.00000  celldm(3)=    4.49102
     celldm(4)=    0.00000  celldm(5)=    0.00000  celldm(6)=    0.00000

     crystal axes: (cart. coord. in units of alat)
               a(1) = (  1.0000  0.0000  0.0000 )  
               a(2) = ( -0.5000  0.8660  0.0000 )  
               a(3) = (  0.0000  0.0000  4.4910 )  

     reciprocal axes: (cart. coord. in units 2 pi/alat)
               b(1) = (  1.0000  0.5774  0.0000 )  
               b(2) = (  0.0000  1.1547  0.0000 )  
               b(3) = (  0.0000  0.0000  0.2227 )  


     Atoms inside the unit cell: 

     Cartesian axes

     site n.  atom      mass           positions (alat units)
        1     S   32.0600   tau(    1) = (   -0.00000    0.57735    0.46790  )
        2     Ta 180.9500   tau(    2) = (    0.00000    0.00000    0.00000  )
        3     S   32.0600   tau(    3) = (   -0.00000    0.57735   -0.46790  )

     Computing dynamical matrix for 
                    q = (   0.0000000   0.0962250   0.0000000 )
 
      4 Sym.Ops. (no q -> -q+G )


     G cutoff =  403.6370  (   7330 G-vectors)     FFT grid: ( 45, 45,192)
     G cutoff =  201.8185  (   2599 G-vectors)  smooth grid: ( 30, 30,128)

     number of k points=   600  Marzari-Vanderbilt smearing, width (Ry)=  0.0060

     PseudoPot. # 1 for Ta read from file:
     /fastscratch/tsievers/TaS2_24_ph_benchmark_images//pseudos/Ta.pbe-hgh.UPF
     MD5 check sum: 129c51a9a4223465c43ca8d238d17e53
     Pseudo is Norm-conserving, Zval =  5.0
     Generated in analytical, separable form
     Using radial grid of 1273 points,  6 beta functions with: 
                l(1) =   0
                l(2) =   0
                l(3) =   1
                l(4) =   1
                l(5) =   2
                l(6) =   2

     PseudoPot. # 2 for S  read from file:
     /fastscratch/tsievers/TaS2_24_ph_benchmark_images//pseudos/S.pbe-hgh.UPF
     MD5 check sum: 3a21e384b95a7cc84d045d3bcc0c4ba8
     Pseudo is Norm-conserving, Zval =  6.0
     Generated in analytical, separable form
     Using radial grid of 1151 points,  3 beta functions with: 
                l(1) =   0
                l(2) =   0
                l(3) =   1

     Mode symmetry, C_2v (mm2)  point group:


     Atomic displacements:
     There are    9 irreducible representations

     Representation     1      1 modes -  To be done

     Representation     2      1 modes -  To be done

     Representation     3      1 modes -  To be done

     Representation     4      1 modes -  To be done

     Representation     5      1 modes -  To be done

     Representation     6      1 modes -  To be done

     Representation     7      1 modes -  To be done

     Representation     8      1 modes -  To be done

     Representation     9      1 modes -  To be done



     Alpha used in Ewald sum =   2.8000
     PHONON       :   2m28.18s CPU   3m28.07s WALL



     Representation #   1 mode #   1

     Self-consistent Calculation

      iter #   1 total cpu time :   211.7 secs   av.it.:   9.0
      thresh= 1.000E-02 alpha_mix =  0.700 |ddv_scf|^2 =  1.837E-02

      iter #   2 total cpu time :   217.1 secs   av.it.:  14.5
      thresh= 1.000E-02 alpha_mix =  0.700 |ddv_scf|^2 =  1.005E+02

      iter #   3 total cpu time :   222.2 secs   av.it.:  14.6
      thresh= 1.000E-02 alpha_mix =  0.700 |ddv_scf|^2 =  5.439E-03

      iter #   4 total cpu time :   226.3 secs   av.it.:  10.1
      thresh= 7.375E-03 alpha_mix =  0.700 |ddv_scf|^2 =  2.997E-05

      iter #   5 total cpu time :   231.2 secs   av.it.:  13.7
      thresh= 5.474E-04 alpha_mix =  0.700 |ddv_scf|^2 =  2.621E-06

      iter #   6 total cpu time :   235.9 secs   av.it.:  13.0
      thresh= 1.619E-04 alpha_mix =  0.700 |ddv_scf|^2 =  9.792E-04

      iter #   7 total cpu time :   244.5 secs   av.it.:   8.5
      thresh= 3.129E-03 alpha_mix =  0.700 |ddv_scf|^2 =  1.364E-06

      iter #   8 total cpu time :   252.5 secs   av.it.:  10.9
      thresh= 1.168E-04 alpha_mix =  0.700 |ddv_scf|^2 =  1.774E-07

      iter #   9 total cpu time :   257.4 secs   av.it.:  10.2
      thresh= 4.212E-05 alpha_mix =  0.700 |ddv_scf|^2 =  1.215E-09

      iter #  10 total cpu time :   261.9 secs   av.it.:  12.2
      thresh= 3.486E-06 alpha_mix =  0.700 |ddv_scf|^2 =  7.659E-09

      iter #  11 total cpu time :   265.9 secs   av.it.:   9.2
      thresh= 8.752E-06 alpha_mix =  0.700 |ddv_scf|^2 =  2.085E-10

      iter #  12 total cpu time :   270.5 secs   av.it.:  10.0
      thresh= 1.444E-06 alpha_mix =  0.700 |ddv_scf|^2 =  7.474E-11

      iter #  13 total cpu time :   275.2 secs   av.it.:  10.2
      thresh= 8.645E-07 alpha_mix =  0.700 |ddv_scf|^2 =  3.912E-11

      iter #  14 total cpu time :   283.1 secs   av.it.:  10.3
      thresh= 6.255E-07 alpha_mix =  0.700 |ddv_scf|^2 =  8.005E-12

      iter #  15 total cpu time :   286.8 secs   av.it.:   9.0
      thresh= 2.829E-07 alpha_mix =  0.700 |ddv_scf|^2 =  1.293E-13

      iter #  16 total cpu time :   291.4 secs   av.it.:   9.5
      thresh= 3.596E-08 alpha_mix =  0.700 |ddv_scf|^2 =  6.964E-15

      iter #  17 total cpu time :   296.0 secs   av.it.:  10.3
      thresh= 8.345E-09 alpha_mix =  0.700 |ddv_scf|^2 =  2.174E-15

      iter #  18 total cpu time :   299.7 secs   av.it.:   8.9
      thresh= 4.663E-09 alpha_mix =  0.700 |ddv_scf|^2 =  4.033E-16

      iter #  19 total cpu time :   303.4 secs   av.it.:   9.9
      thresh= 2.008E-09 alpha_mix =  0.700 |ddv_scf|^2 =  1.105E-17

      iter #  20 total cpu time :   309.2 secs   av.it.:  11.6
      thresh= 3.324E-10 alpha_mix =  0.700 |ddv_scf|^2 =  3.253E-17

      iter #  21 total cpu time :   315.2 secs   av.it.:   9.2
      thresh= 5.703E-10 alpha_mix =  0.700 |ddv_scf|^2 =  3.464E-19

      iter #  22 total cpu time :   320.1 secs   av.it.:  11.2
      thresh= 5.886E-11 alpha_mix =  0.700 |ddv_scf|^2 =  2.563E-19

      iter #  23 total cpu time :   324.1 secs   av.it.:   8.2
      thresh= 5.063E-11 alpha_mix =  0.700 |ddv_scf|^2 =  4.655E-20

      iter #  24 total cpu time :   329.1 secs   av.it.:   9.5
      thresh= 2.158E-11 alpha_mix =  0.700 |ddv_scf|^2 =  8.186E-21

      iter #  25 total cpu time :   332.5 secs   av.it.:   9.5
      thresh= 9.048E-12 alpha_mix =  0.700 |ddv_scf|^2 =  2.615E-22

     End of self-consistent calculation

     Convergence has been achieved 


     Representation #   2 mode #   2

     Self-consistent Calculation

      iter #   1 total cpu time :   336.7 secs   av.it.:   9.2
      thresh= 1.000E-02 alpha_mix =  0.700 |ddv_scf|^2 =  9.381E-03

      iter #   2 total cpu time :   343.2 secs   av.it.:  14.1
      thresh= 9.686E-03 alpha_mix =  0.700 |ddv_scf|^2 =  5.352E+01

      iter #   3 total cpu time :   349.5 secs   av.it.:  14.0
      thresh= 1.000E-02 alpha_mix =  0.700 |ddv_scf|^2 =  9.218E-03

      iter #   4 total cpu time :   354.9 secs   av.it.:  11.5
      thresh= 9.601E-03 alpha_mix =  0.700 |ddv_scf|^2 =  8.493E-02

      iter #   5 total cpu time :   359.6 secs   av.it.:  11.1
      thresh= 1.000E-02 alpha_mix =  0.700 |ddv_scf|^2 =  1.243E-03

      iter #   6 total cpu time :   363.6 secs   av.it.:  10.9
      thresh= 3.526E-03 alpha_mix =  0.700 |ddv_scf|^2 =  2.753E-02

      iter #   7 total cpu time :   368.4 secs   av.it.:   8.3
      thresh= 1.000E-02 alpha_mix =  0.700 |ddv_scf|^2 =  1.839E-05

      iter #   8 total cpu time :   375.7 secs   av.it.:  11.3
      thresh= 4.288E-04 alpha_mix =  0.700 |ddv_scf|^2 =  2.387E-05

      iter #   9 total cpu time :   380.5 secs   av.it.:   9.8
      thresh= 4.885E-04 alpha_mix =  0.700 |ddv_scf|^2 =  8.954E-07

      iter #  10 total cpu time :   384.1 secs   av.it.:   9.0
      thresh= 9.463E-05 alpha_mix =  0.700 |ddv_scf|^2 =  8.870E-08

      iter #  11 total cpu time :   388.3 secs   av.it.:   9.7
      thresh= 2.978E-05 alpha_mix =  0.700 |ddv_scf|^2 =  1.617E-07

      iter #  12 total cpu time :   392.4 secs   av.it.:   9.3
      thresh= 4.021E-05 alpha_mix =  0.700 |ddv_scf|^2 =  9.973E-10

      iter #  13 total cpu time :   396.9 secs   av.it.:  10.1
      thresh= 3.158E-06 alpha_mix =  0.700 |ddv_scf|^2 =  5.149E-10

      iter #  14 total cpu time :   402.5 secs   av.it.:  10.0
      thresh= 2.269E-06 alpha_mix =  0.700 |ddv_scf|^2 =  5.026E-11

      iter #  15 total cpu time :   407.9 secs   av.it.:   9.4
      thresh= 7.090E-07 alpha_mix =  0.700 |ddv_scf|^2 =  7.966E-13

      iter #  16 total cpu time :   413.1 secs   av.it.:   9.9
      thresh= 8.925E-08 alpha_mix =  0.700 |ddv_scf|^2 =  2.985E-13

      iter #  17 total cpu time :   417.1 secs   av.it.:   9.1
      thresh= 5.464E-08 alpha_mix =  0.700 |ddv_scf|^2 =  1.207E-14

      iter #  18 total cpu time :   421.0 secs   av.it.:  10.1
      thresh= 1.099E-08 alpha_mix =  0.700 |ddv_scf|^2 =  1.745E-15

      iter #  19 total cpu time :   425.9 secs   av.it.:   9.5
      thresh= 4.178E-09 alpha_mix =  0.700 |ddv_scf|^2 =  4.060E-17

      iter #  20 total cpu time :   430.6 secs   av.it.:  10.1
      thresh= 6.372E-10 alpha_mix =  0.700 |ddv_scf|^2 =  2.766E-17

      iter #  21 total cpu time :   437.0 secs   av.it.:   9.5
      thresh= 5.260E-10 alpha_mix =  0.700 |ddv_scf|^2 =  6.874E-19

      iter #  22 total cpu time :   442.0 secs   av.it.:  10.1
      thresh= 8.291E-11 alpha_mix =  0.700 |ddv_scf|^2 =  8.525E-20

      iter #  23 total cpu time :   446.0 secs   av.it.:   9.4
      thresh= 2.920E-11 alpha_mix =  0.700 |ddv_scf|^2 =  6.625E-21

      iter #  24 total cpu time :   450.3 secs   av.it.:   8.4
      thresh= 8.139E-12 alpha_mix =  0.700 |ddv_scf|^2 =  2.480E-21

      iter #  25 total cpu time :   454.6 secs   av.it.:   9.7
      thresh= 4.980E-12 alpha_mix =  0.700 |ddv_scf|^2 =  8.543E-23

     End of self-consistent calculation

     Convergence has been achieved 


     Representation #   3 mode #   3

     Self-consistent Calculation

      iter #   1 total cpu time :   466.7 secs   av.it.:   8.0
      thresh= 1.000E-02 alpha_mix =  0.700 |ddv_scf|^2 =  7.683E-03

      iter #   2 total cpu time :   472.3 secs   av.it.:  14.0
      thresh= 8.765E-03 alpha_mix =  0.700 |ddv_scf|^2 =  4.203E+01

      iter #   3 total cpu time :   477.9 secs   av.it.:  13.8
      thresh= 1.000E-02 alpha_mix =  0.700 |ddv_scf|^2 =  2.183E-03

      iter #   4 total cpu time :   481.1 secs   av.it.:   7.5
      thresh= 4.672E-03 alpha_mix =  0.700 |ddv_scf|^2 =  1.393E-06

      iter #   5 total cpu time :   485.7 secs   av.it.:  11.3
      thresh= 1.180E-04 alpha_mix =  0.700 |ddv_scf|^2 =  3.656E-05

      iter #   6 total cpu time :   490.0 secs   av.it.:   6.5
      thresh= 6.047E-04 alpha_mix =  0.700 |ddv_scf|^2 =  2.245E-06

      iter #   7 total cpu time :   495.3 secs   av.it.:  10.0
      thresh= 1.498E-04 alpha_mix =  0.700 |ddv_scf|^2 =  1.998E-06

      iter #   8 total cpu time :   502.0 secs   av.it.:   9.5
      thresh= 1.413E-04 alpha_mix =  0.700 |ddv_scf|^2 =  3.062E-07

      iter #   9 total cpu time :   506.7 secs   av.it.:  10.2
      thresh= 5.533E-05 alpha_mix =  0.700 |ddv_scf|^2 =  1.282E-07

      iter #  10 total cpu time :   510.6 secs   av.it.:   9.4
      thresh= 3.581E-05 alpha_mix =  0.700 |ddv_scf|^2 =  2.869E-09

      iter #  11 total cpu time :   514.3 secs   av.it.:   9.1
      thresh= 5.356E-06 alpha_mix =  0.700 |ddv_scf|^2 =  2.744E-12

      iter #  12 total cpu time :   520.1 secs   av.it.:  11.0
      thresh= 1.656E-07 alpha_mix =  0.700 |ddv_scf|^2 =  2.304E-12

      iter #  13 total cpu time :   524.5 secs   av.it.:   9.9
      thresh= 1.518E-07 alpha_mix =  0.700 |ddv_scf|^2 =  1.702E-13

      iter #  14 total cpu time :   530.5 secs   av.it.:   9.7
      thresh= 4.126E-08 alpha_mix =  0.700 |ddv_scf|^2 =  2.078E-13

      iter #  15 total cpu time :   535.4 secs   av.it.:   9.5
      thresh= 4.558E-08 alpha_mix =  0.700 |ddv_scf|^2 =  1.169E-13

      iter #  16 total cpu time :   539.5 secs   av.it.:   9.0
      thresh= 3.419E-08 alpha_mix =  0.700 |ddv_scf|^2 =  2.095E-14

      iter #  17 total cpu time :   544.3 secs   av.it.:   9.6
      thresh= 1.447E-08 alpha_mix =  0.700 |ddv_scf|^2 =  3.943E-18

      iter #  18 total cpu time :   549.9 secs   av.it.:  13.1
      thresh= 1.986E-10 alpha_mix =  0.700 |ddv_scf|^2 =  8.549E-17

      iter #  19 total cpu time :   553.5 secs   av.it.:   8.9
      thresh= 9.246E-10 alpha_mix =  0.700 |ddv_scf|^2 =  8.492E-18

      iter #  20 total cpu time :   558.6 secs   av.it.:   9.9
      thresh= 2.914E-10 alpha_mix =  0.700 |ddv_scf|^2 =  2.543E-19

      iter #  21 total cpu time :   566.1 secs   av.it.:  10.9
      thresh= 5.043E-11 alpha_mix =  0.700 |ddv_scf|^2 =  2.520E-20

      iter #  22 total cpu time :   569.9 secs   av.it.:  10.0
      thresh= 1.587E-11 alpha_mix =  0.700 |ddv_scf|^2 =  3.955E-21

      iter #  23 total cpu time :   573.9 secs   av.it.:  10.3
      thresh= 6.289E-12 alpha_mix =  0.700 |ddv_scf|^2 =  3.716E-21

      iter #  24 total cpu time :   578.2 secs   av.it.:   9.0
      thresh= 6.096E-12 alpha_mix =  0.700 |ddv_scf|^2 =  1.495E-21

      iter #  25 total cpu time :   581.8 secs   av.it.:   9.5
      thresh= 3.866E-12 alpha_mix =  0.700 |ddv_scf|^2 =  1.617E-22

     End of self-consistent calculation

     Convergence has been achieved 


     Representation #   4 mode #   4

     Self-consistent Calculation

      iter #   1 total cpu time :   585.8 secs   av.it.:   7.9
      thresh= 1.000E-02 alpha_mix =  0.700 |ddv_scf|^2 =  5.345E-08

      iter #   2 total cpu time :   593.4 secs   av.it.:  16.3
      thresh= 2.312E-05 alpha_mix =  0.700 |ddv_scf|^2 =  4.861E-09

      iter #   3 total cpu time :   599.5 secs   av.it.:  16.1
      thresh= 6.972E-06 alpha_mix =  0.700 |ddv_scf|^2 =  2.193E-10

      iter #   4 total cpu time :   604.5 secs   av.it.:  14.4
      thresh= 1.481E-06 alpha_mix =  0.700 |ddv_scf|^2 =  6.066E-14

      iter #   5 total cpu time :   610.8 secs   av.it.:  15.7
      thresh= 2.463E-08 alpha_mix =  0.700 |ddv_scf|^2 =  2.618E-15

      iter #   6 total cpu time :   616.1 secs   av.it.:  15.1
      thresh= 5.116E-09 alpha_mix =  0.700 |ddv_scf|^2 =  8.170E-18

      iter #   7 total cpu time :   623.0 secs   av.it.:  16.3
      thresh= 2.858E-10 alpha_mix =  0.700 |ddv_scf|^2 =  3.326E-19

      iter #   8 total cpu time :   630.5 secs   av.it.:  16.7
      thresh= 5.767E-11 alpha_mix =  0.700 |ddv_scf|^2 =  1.267E-20

      iter #   9 total cpu time :   635.9 secs   av.it.:  16.5
      thresh= 1.126E-11 alpha_mix =  0.700 |ddv_scf|^2 =  6.711E-22

     End of self-consistent calculation

     Convergence has been achieved 


     Representation #   5 mode #   5

     Self-consistent Calculation

      iter #   1 total cpu time :   639.5 secs   av.it.:   7.0
      thresh= 1.000E-02 alpha_mix =  0.700 |ddv_scf|^2 =  7.560E-09

      iter #   2 total cpu time :   646.1 secs   av.it.:  16.4
      thresh= 8.695E-06 alpha_mix =  0.700 |ddv_scf|^2 =  5.459E-10

      iter #   3 total cpu time :   653.9 secs   av.it.:  15.9
      thresh= 2.336E-06 alpha_mix =  0.700 |ddv_scf|^2 =  5.850E-11

      iter #   4 total cpu time :   660.2 secs   av.it.:  15.8
      thresh= 7.649E-07 alpha_mix =  0.700 |ddv_scf|^2 =  9.546E-13

      iter #   5 total cpu time :   675.1 secs   av.it.:  16.2
      thresh= 9.770E-08 alpha_mix =  0.700 |ddv_scf|^2 =  2.140E-14

      iter #   6 total cpu time :   680.8 secs   av.it.:  16.4
      thresh= 1.463E-08 alpha_mix =  0.700 |ddv_scf|^2 =  9.847E-17

      iter #   7 total cpu time :   689.5 secs   av.it.:  16.5
      thresh= 9.923E-10 alpha_mix =  0.700 |ddv_scf|^2 =  2.478E-18

      iter #   8 total cpu time :   695.5 secs   av.it.:  15.6
      thresh= 1.574E-10 alpha_mix =  0.700 |ddv_scf|^2 =  3.267E-20

      iter #   9 total cpu time :   700.8 secs   av.it.:  15.6
      thresh= 1.808E-11 alpha_mix =  0.700 |ddv_scf|^2 =  3.627E-22

     End of self-consistent calculation

     Convergence has been achieved 


     Representation #   6 mode #   6

     Self-consistent Calculation

      iter #   1 total cpu time :   704.6 secs   av.it.:   7.9
      thresh= 1.000E-02 alpha_mix =  0.700 |ddv_scf|^2 =  6.386E-08

      iter #   2 total cpu time :   710.3 secs   av.it.:  16.5
      thresh= 2.527E-05 alpha_mix =  0.700 |ddv_scf|^2 =  7.047E-09

      iter #   3 total cpu time :   716.7 secs   av.it.:  16.2
      thresh= 8.395E-06 alpha_mix =  0.700 |ddv_scf|^2 =  2.385E-10

      iter #   4 total cpu time :   723.2 secs   av.it.:  14.5
      thresh= 1.544E-06 alpha_mix =  0.700 |ddv_scf|^2 =  9.804E-14

      iter #   5 total cpu time :   729.4 secs   av.it.:  15.7
      thresh= 3.131E-08 alpha_mix =  0.700 |ddv_scf|^2 =  8.414E-15

      iter #   6 total cpu time :   735.8 secs   av.it.:  16.2
      thresh= 9.173E-09 alpha_mix =  0.700 |ddv_scf|^2 =  1.014E-16

      iter #   7 total cpu time :   742.5 secs   av.it.:  16.4
      thresh= 1.007E-09 alpha_mix =  0.700 |ddv_scf|^2 =  4.343E-18

      iter #   8 total cpu time :   750.1 secs   av.it.:  16.5
      thresh= 2.084E-10 alpha_mix =  0.700 |ddv_scf|^2 =  3.714E-20

      iter #   9 total cpu time :   757.4 secs   av.it.:  16.7
      thresh= 1.927E-11 alpha_mix =  0.700 |ddv_scf|^2 =  2.761E-21

      iter #  10 total cpu time :   762.9 secs   av.it.:  16.4
      thresh= 5.255E-12 alpha_mix =  0.700 |ddv_scf|^2 =  7.090E-23

     End of self-consistent calculation

     Convergence has been achieved 


     Representation #   7 mode #   7

     Self-consistent Calculation

      iter #   1 total cpu time :   767.1 secs   av.it.:   8.3
      thresh= 1.000E-02 alpha_mix =  0.700 |ddv_scf|^2 =  7.082E-06

      iter #   2 total cpu time :   772.9 secs   av.it.:  15.3
      thresh= 2.661E-04 alpha_mix =  0.700 |ddv_scf|^2 =  1.297E-04

      iter #   3 total cpu time :   778.2 secs   av.it.:  12.6
      thresh= 1.139E-03 alpha_mix =  0.700 |ddv_scf|^2 =  7.079E-08

      iter #   4 total cpu time :   784.1 secs   av.it.:  14.6
      thresh= 2.661E-05 alpha_mix =  0.700 |ddv_scf|^2 =  5.296E-09

      iter #   5 total cpu time :   789.1 secs   av.it.:  13.9
      thresh= 7.277E-06 alpha_mix =  0.700 |ddv_scf|^2 =  9.487E-11

      iter #   6 total cpu time :   795.3 secs   av.it.:  14.4
      thresh= 9.740E-07 alpha_mix =  0.700 |ddv_scf|^2 =  3.524E-12

      iter #   7 total cpu time :   801.3 secs   av.it.:  15.2
      thresh= 1.877E-07 alpha_mix =  0.700 |ddv_scf|^2 =  8.604E-12

      iter #   8 total cpu time :   807.2 secs   av.it.:  13.6
      thresh= 2.933E-07 alpha_mix =  0.700 |ddv_scf|^2 =  1.312E-12

      iter #   9 total cpu time :   814.4 secs   av.it.:  13.9
      thresh= 1.145E-07 alpha_mix =  0.700 |ddv_scf|^2 =  3.182E-14

      iter #  10 total cpu time :   819.9 secs   av.it.:  14.9
      thresh= 1.784E-08 alpha_mix =  0.700 |ddv_scf|^2 =  2.005E-14

      iter #  11 total cpu time :   825.4 secs   av.it.:  13.2
      thresh= 1.416E-08 alpha_mix =  0.700 |ddv_scf|^2 =  1.638E-16

      iter #  12 total cpu time :   831.0 secs   av.it.:  15.3
      thresh= 1.280E-09 alpha_mix =  0.700 |ddv_scf|^2 =  5.314E-17

      iter #  13 total cpu time :   837.2 secs   av.it.:  14.2
      thresh= 7.290E-10 alpha_mix =  0.700 |ddv_scf|^2 =  8.636E-19

      iter #  14 total cpu time :   843.3 secs   av.it.:  14.5
      thresh= 9.293E-11 alpha_mix =  0.700 |ddv_scf|^2 =  2.454E-20

      iter #  15 total cpu time :   849.7 secs   av.it.:  14.7
      thresh= 1.567E-11 alpha_mix =  0.700 |ddv_scf|^2 =  2.772E-21

      iter #  16 total cpu time :   854.5 secs   av.it.:  14.0
      thresh= 5.265E-12 alpha_mix =  0.700 |ddv_scf|^2 =  9.434E-23

     End of self-consistent calculation

     Convergence has been achieved 


     Representation #   8 mode #   8

     Self-consistent Calculation

      iter #   1 total cpu time :   859.4 secs   av.it.:   8.3
      thresh= 1.000E-02 alpha_mix =  0.700 |ddv_scf|^2 =  2.242E-05

      iter #   2 total cpu time :   864.7 secs   av.it.:  15.2
      thresh= 4.735E-04 alpha_mix =  0.700 |ddv_scf|^2 =  4.432E-04

      iter #   3 total cpu time :   869.8 secs   av.it.:  12.5
      thresh= 2.105E-03 alpha_mix =  0.700 |ddv_scf|^2 =  7.342E-09

      iter #   4 total cpu time :   876.0 secs   av.it.:  15.8
      thresh= 8.569E-06 alpha_mix =  0.700 |ddv_scf|^2 =  7.414E-09

      iter #   5 total cpu time :   882.0 secs   av.it.:  13.9
      thresh= 8.611E-06 alpha_mix =  0.700 |ddv_scf|^2 =  2.244E-10

      iter #   6 total cpu time :   887.0 secs   av.it.:  13.7
      thresh= 1.498E-06 alpha_mix =  0.700 |ddv_scf|^2 =  4.095E-11

      iter #   7 total cpu time :   891.7 secs   av.it.:  12.5
      thresh= 6.399E-07 alpha_mix =  0.700 |ddv_scf|^2 =  1.898E-11

      iter #   8 total cpu time :   898.1 secs   av.it.:  13.2
      thresh= 4.356E-07 alpha_mix =  0.700 |ddv_scf|^2 =  2.235E-14

      iter #   9 total cpu time :   904.5 secs   av.it.:  15.2
      thresh= 1.495E-08 alpha_mix =  0.700 |ddv_scf|^2 =  1.657E-15

      iter #  10 total cpu time :   910.2 secs   av.it.:  15.2
      thresh= 4.071E-09 alpha_mix =  0.700 |ddv_scf|^2 =  3.424E-16

      iter #  11 total cpu time :   917.0 secs   av.it.:  14.4
      thresh= 1.850E-09 alpha_mix =  0.700 |ddv_scf|^2 =  1.443E-17

      iter #  12 total cpu time :   922.6 secs   av.it.:  13.7
      thresh= 3.798E-10 alpha_mix =  0.700 |ddv_scf|^2 =  4.464E-19

      iter #  13 total cpu time :   929.2 secs   av.it.:  14.3
      thresh= 6.682E-11 alpha_mix =  0.700 |ddv_scf|^2 =  3.617E-19

      iter #  14 total cpu time :   934.7 secs   av.it.:  13.5
      thresh= 6.014E-11 alpha_mix =  0.700 |ddv_scf|^2 =  5.243E-20

      iter #  15 total cpu time :   939.9 secs   av.it.:  13.9
      thresh= 2.290E-11 alpha_mix =  0.700 |ddv_scf|^2 =  1.002E-21

      iter #  16 total cpu time :   944.8 secs   av.it.:  14.3
      thresh= 3.166E-12 alpha_mix =  0.700 |ddv_scf|^2 =  6.393E-23

     End of self-consistent calculation

     Convergence has been achieved 


     Representation #   9 mode #   9

     Self-consistent Calculation

      iter #   1 total cpu time :   948.9 secs   av.it.:   8.7
      thresh= 1.000E-02 alpha_mix =  0.700 |ddv_scf|^2 =  3.001E-05

      iter #   2 total cpu time :   954.1 secs   av.it.:  15.1
      thresh= 5.478E-04 alpha_mix =  0.700 |ddv_scf|^2 =  5.185E-04

      iter #   3 total cpu time :   959.3 secs   av.it.:  12.6
      thresh= 2.277E-03 alpha_mix =  0.700 |ddv_scf|^2 =  1.061E-06

      iter #   4 total cpu time :   965.4 secs   av.it.:  13.7
      thresh= 1.030E-04 alpha_mix =  0.700 |ddv_scf|^2 =  2.195E-08

      iter #   5 total cpu time :   970.7 secs   av.it.:  13.7
      thresh= 1.482E-05 alpha_mix =  0.700 |ddv_scf|^2 =  6.278E-11

      iter #   6 total cpu time :   975.6 secs   av.it.:  14.2
      thresh= 7.923E-07 alpha_mix =  0.700 |ddv_scf|^2 =  2.403E-11

      iter #   7 total cpu time :   982.3 secs   av.it.:  12.8
      thresh= 4.902E-07 alpha_mix =  0.700 |ddv_scf|^2 =  2.098E-12

      iter #   8 total cpu time :   988.7 secs   av.it.:  14.4
      thresh= 1.448E-07 alpha_mix =  0.700 |ddv_scf|^2 =  4.285E-13

      iter #   9 total cpu time :   995.2 secs   av.it.:  14.2
      thresh= 6.546E-08 alpha_mix =  0.700 |ddv_scf|^2 =  1.594E-14

      iter #  10 total cpu time :  1000.2 secs   av.it.:  13.5
      thresh= 1.263E-08 alpha_mix =  0.700 |ddv_scf|^2 =  5.054E-16

      iter #  11 total cpu time :  1005.2 secs   av.it.:  13.4
      thresh= 2.248E-09 alpha_mix =  0.700 |ddv_scf|^2 =  1.675E-18

      iter #  12 total cpu time :  1011.5 secs   av.it.:  15.3
      thresh= 1.294E-10 alpha_mix =  0.700 |ddv_scf|^2 =  5.154E-19

      iter #  13 total cpu time :  1017.0 secs   av.it.:  14.0
      thresh= 7.179E-11 alpha_mix =  0.700 |ddv_scf|^2 =  6.208E-20

      iter #  14 total cpu time :  1023.3 secs   av.it.:  14.7
      thresh= 2.492E-11 alpha_mix =  0.700 |ddv_scf|^2 =  2.021E-20

      iter #  15 total cpu time :  1029.3 secs   av.it.:  14.4
      thresh= 1.421E-11 alpha_mix =  0.700 |ddv_scf|^2 =  1.164E-21

      iter #  16 total cpu time :  1034.6 secs   av.it.:  15.1
      thresh= 3.411E-12 alpha_mix =  0.700 |ddv_scf|^2 =  3.111E-22

     End of self-consistent calculation

     Convergence has been achieved 
 
     Number of q in the star =    3
     List of q in the star:
          1   0.000000000   0.096225045   0.000000000
          2   0.083333333  -0.048112522   0.000000000
          3  -0.083333333  -0.048112522   0.000000000
     In addition there is the -q list: 
          1   0.000000000  -0.096225045   0.000000000
          2  -0.083333333   0.048112522   0.000000000
          3   0.083333333   0.048112522   0.000000000

     Diagonalizing the dynamical matrix

     q = (    0.000000000   0.096225045   0.000000000 ) 

 **************************************************************************
     freq (    1) =       0.499912 [THz] =      16.675261 [cm-1]
     freq (    2) =       0.892398 [THz] =      29.767202 [cm-1]
     freq (    3) =       1.335124 [THz] =      44.534930 [cm-1]
     freq (    4) =       6.966379 [THz] =     232.373390 [cm-1]
     freq (    5) =       7.081743 [THz] =     236.221517 [cm-1]
     freq (    6) =       8.320909 [THz] =     277.555642 [cm-1]
     freq (    7) =       8.569192 [THz] =     285.837487 [cm-1]
     freq (    8) =      11.084451 [THz] =     369.737475 [cm-1]
     freq (    9) =      11.944038 [THz] =     398.410214 [cm-1]
 **************************************************************************

     Mode symmetry, C_2v (mm2)  point group:

     freq (   1-   1) =         16.7  [cm-1]   --> B_1  D_3  S_3      
     freq (   2-   2) =         29.8  [cm-1]   --> B_2  D_4  S_4      
     freq (   3-   3) =         44.5  [cm-1]   --> A_1  D_1  S_1      
     freq (   4-   4) =        232.4  [cm-1]   --> A_2  D_2  S_2      
     freq (   5-   5) =        236.2  [cm-1]   --> B_2  D_4  S_4      
     freq (   6-   6) =        277.6  [cm-1]   --> B_1  D_3  S_3      
     freq (   7-   7) =        285.8  [cm-1]   --> A_1  D_1  S_1      
     freq (   8-   8) =        369.7  [cm-1]   --> B_2  D_4  S_4      
     freq (   9-   9) =        398.4  [cm-1]   --> A_1  D_1  S_1      

     Calculation of q =    0.0000000   0.1924501   0.0000000
 
     Parallelization info
     --------------------
     sticks:   dense  smooth     PW     G-vecs:    dense   smooth      PW
     Min          60      31      9                 7329     2593     443
     Max          62      32     10                 7342     2605     464
     Sum        1099     559    163               132031    46753    8057
 
     Using Slab Decomposition
 

     Title: 
     TaS2                                                                       


     bravais-lattice index     =            4
     lattice parameter (alat)  =       6.3117  a.u.
     unit-cell volume          =     977.9382 (a.u.)^3
     number of atoms/cell      =            3
     number of atomic types    =            2
     number of electrons       =        17.00
     number of Kohn-Sham states=           13
     kinetic-energy cutoff     =      50.0000  Ry
     charge density cutoff     =     400.0000  Ry
     Exchange-correlation= PBE
                           (   1   4   3   4   0   0   0)

     celldm(1)=   6.311685  celldm(2)=   0.000000  celldm(3)=   4.491018
     celldm(4)=   0.000000  celldm(5)=   0.000000  celldm(6)=   0.000000

     crystal axes: (cart. coord. in units of alat)
               a(1) = (   1.000000   0.000000   0.000000 )  
               a(2) = (  -0.500000   0.866025   0.000000 )  
               a(3) = (   0.000000   0.000000   4.491018 )  

     reciprocal axes: (cart. coord. in units 2 pi/alat)
               b(1) = (  1.000000  0.577350  0.000000 )  
               b(2) = (  0.000000  1.154701  0.000000 )  
               b(3) = (  0.000000  0.000000  0.222667 )  


     PseudoPot. # 1 for Ta read from file:
     /fastscratch/tsievers/TaS2_24_ph_benchmark_images//pseudos/Ta.pbe-hgh.UPF
     MD5 check sum: 129c51a9a4223465c43ca8d238d17e53
     Pseudo is Norm-conserving, Zval =  5.0
     Generated in analytical, separable form
     Using radial grid of 1273 points,  6 beta functions with: 
                l(1) =   0
                l(2) =   0
                l(3) =   1
                l(4) =   1
                l(5) =   2
                l(6) =   2

     PseudoPot. # 2 for S  read from file:
     /fastscratch/tsievers/TaS2_24_ph_benchmark_images//pseudos/S.pbe-hgh.UPF
     MD5 check sum: 3a21e384b95a7cc84d045d3bcc0c4ba8
     Pseudo is Norm-conserving, Zval =  6.0
     Generated in analytical, separable form
     Using radial grid of 1151 points,  3 beta functions with: 
                l(1) =   0
                l(2) =   0
                l(3) =   1

     atomic species   valence    mass     pseudopotential
        Ta             5.00   180.95000     Ta( 1.00)
        S              6.00    32.06000     S ( 1.00)

     12 Sym. Ops. (no inversion) found



   Cartesian axes

     site n.     atom                  positions (alat units)
         1           S   tau(   1) = (  -0.0000000   0.5773503   0.4679048  )
         2           Ta  tau(   2) = (   0.0000000   0.0000000   0.0000000  )
         3           S   tau(   3) = (  -0.0000000   0.5773503  -0.4679048  )

     number of k points=   600  Marzari-Vanderbilt smearing, width (Ry)=  0.0060

     Number of k-points >= 100: set verbosity='high' to print them.

     Dense  grid:   132031 G-vectors     FFT dimensions: (  45,  45, 192)

     Smooth grid:    46753 G-vectors     FFT dimensions: (  30,  30, 128)

     Estimated max dynamical RAM per process >       6.83 MB

     Estimated total dynamical RAM >     368.81 MB
 ----2D----2D----2D----2D----2D----2D----2D----2D----2D----2D----2D----2D
  The code is running with the 2D cutoff
  Please refer to:
  Sohier, T., Calandra, M., & Mauri, F. (2017), 
  Density functional perturbation theory for gated two-dimensional heterostructu
 res:
  Theoretical developments and application to flexural phonons in graphene.
  Physical Review B, 96(7), 75448. https://doi.org/10.1103/PhysRevB.96.075448
 ----2D----2D----2D----2D----2D----2D----2D----2D----2D----2D----2D----2D

     The potential is recalculated from file :
     /fastscratch/tsievers/QE_TMP_DIR/_ph0/TaS2_24_ph_bench_nimages_2_n_procs_108_0.q_3/TaS2_24_ph_bench_nimages_2_n_procs_108_0.save/charge-density

     Starting wfcs are   27 atomic wfcs

     Band Structure Calculation
     Davidson diagonalization with overlap

     ethr =  5.88E-11,  avg # of iterations = 20.5

     total cpu time spent up to now is       41.0 secs

     End of band structure calculation

     Number of k-points >= 100: set verbosity='high' to print the bands.

     the Fermi energy is    -5.8804 ev

     Writing config to output data dir /fastscratch/tsievers/QE_TMP_DIR/_ph0/TaS2_24_ph_bench_nimages_2_n_procs_108_0.q_3/TaS2_24_ph_bench_nimages_2_n_procs_108_0.save/

     TaS2                                                                       

     bravais-lattice index     =            4
     lattice parameter (alat)  =       6.3117  a.u.
     unit-cell volume          =     977.9382 (a.u.)^3
     number of atoms/cell      =            3
     number of atomic types    =            2
     kinetic-energy cut-off    =      50.0000  Ry
     charge density cut-off    =     400.0000  Ry
     convergence threshold     =      1.0E-21
     beta                      =       0.7000
     number of iterations used =            4
     Exchange-correlation= PBE
                           (   1   4   3   4   0   0   0)


     celldm(1)=    6.31169  celldm(2)=    0.00000  celldm(3)=    4.49102
     celldm(4)=    0.00000  celldm(5)=    0.00000  celldm(6)=    0.00000

     crystal axes: (cart. coord. in units of alat)
               a(1) = (  1.0000  0.0000  0.0000 )  
               a(2) = ( -0.5000  0.8660  0.0000 )  
               a(3) = (  0.0000  0.0000  4.4910 )  

     reciprocal axes: (cart. coord. in units 2 pi/alat)
               b(1) = (  1.0000  0.5774  0.0000 )  
               b(2) = (  0.0000  1.1547  0.0000 )  
               b(3) = (  0.0000  0.0000  0.2227 )  


     Atoms inside the unit cell: 

     Cartesian axes

     site n.  atom      mass           positions (alat units)
        1     S   32.0600   tau(    1) = (   -0.00000    0.57735    0.46790  )
        2     Ta 180.9500   tau(    2) = (    0.00000    0.00000    0.00000  )
        3     S   32.0600   tau(    3) = (   -0.00000    0.57735   -0.46790  )

     Computing dynamical matrix for 
                    q = (   0.0000000   0.1924501   0.0000000 )
 
      4 Sym.Ops. (no q -> -q+G )


     G cutoff =  403.6370  (   7330 G-vectors)     FFT grid: ( 45, 45,192)
     G cutoff =  201.8185  (   2599 G-vectors)  smooth grid: ( 30, 30,128)

     number of k points=   600  Marzari-Vanderbilt smearing, width (Ry)=  0.0060

     PseudoPot. # 1 for Ta read from file:
     /fastscratch/tsievers/TaS2_24_ph_benchmark_images//pseudos/Ta.pbe-hgh.UPF
     MD5 check sum: 129c51a9a4223465c43ca8d238d17e53
     Pseudo is Norm-conserving, Zval =  5.0
     Generated in analytical, separable form
     Using radial grid of 1273 points,  6 beta functions with: 
                l(1) =   0
                l(2) =   0
                l(3) =   1
                l(4) =   1
                l(5) =   2
                l(6) =   2

     PseudoPot. # 2 for S  read from file:
     /fastscratch/tsievers/TaS2_24_ph_benchmark_images//pseudos/S.pbe-hgh.UPF
     MD5 check sum: 3a21e384b95a7cc84d045d3bcc0c4ba8
     Pseudo is Norm-conserving, Zval =  6.0
     Generated in analytical, separable form
     Using radial grid of 1151 points,  3 beta functions with: 
                l(1) =   0
                l(2) =   0
                l(3) =   1

     Mode symmetry, C_2v (mm2)  point group:


     Atomic displacements:
     There are    9 irreducible representations

     Representation     1      1 modes -  To be done

     Representation     2      1 modes -  To be done

     Representation     3      1 modes -  To be done

     Representation     4      1 modes -  To be done

     Representation     5      1 modes -  To be done

     Representation     6      1 modes -  To be done

     Representation     7      1 modes -  To be done

     Representation     8      1 modes -  To be done

     Representation     9      1 modes -  To be done



     Alpha used in Ewald sum =   2.8000
     PHONON       :  14m38.86s CPU  17m39.39s WALL



     Representation #   1 mode #   1

     Self-consistent Calculation

      iter #   1 total cpu time :  1063.0 secs   av.it.:   9.1
      thresh= 1.000E-02 alpha_mix =  0.700 |ddv_scf|^2 =  1.348E-03

      iter #   2 total cpu time :  1068.6 secs   av.it.:  15.4
      thresh= 3.671E-03 alpha_mix =  0.700 |ddv_scf|^2 =  1.292E+00

      iter #   3 total cpu time :  1074.1 secs   av.it.:  13.8
      thresh= 1.000E-02 alpha_mix =  0.700 |ddv_scf|^2 =  6.670E-05

      iter #   4 total cpu time :  1079.0 secs   av.it.:  13.3
      thresh= 8.167E-04 alpha_mix =  0.700 |ddv_scf|^2 =  5.211E-05

      iter #   5 total cpu time :  1083.6 secs   av.it.:  12.6
      thresh= 7.219E-04 alpha_mix =  0.700 |ddv_scf|^2 =  1.040E-07

      iter #   6 total cpu time :  1088.5 secs   av.it.:  13.9
      thresh= 3.224E-05 alpha_mix =  0.700 |ddv_scf|^2 =  5.659E-06

      iter #   7 total cpu time :  1098.1 secs   av.it.:  10.9
      thresh= 2.379E-04 alpha_mix =  0.700 |ddv_scf|^2 =  2.762E-08

      iter #   8 total cpu time :  1103.4 secs   av.it.:  13.2
      thresh= 1.662E-05 alpha_mix =  0.700 |ddv_scf|^2 =  1.347E-09

      iter #   9 total cpu time :  1108.7 secs   av.it.:  12.8
      thresh= 3.670E-06 alpha_mix =  0.700 |ddv_scf|^2 =  3.839E-11

      iter #  10 total cpu time :  1113.4 secs   av.it.:  12.7
      thresh= 6.196E-07 alpha_mix =  0.700 |ddv_scf|^2 =  1.811E-11

      iter #  11 total cpu time :  1118.0 secs   av.it.:  12.3
      thresh= 4.256E-07 alpha_mix =  0.700 |ddv_scf|^2 =  1.339E-11

      iter #  12 total cpu time :  1123.0 secs   av.it.:  11.9
      thresh= 3.660E-07 alpha_mix =  0.700 |ddv_scf|^2 =  6.248E-14

      iter #  13 total cpu time :  1130.8 secs   av.it.:  13.4
      thresh= 2.500E-08 alpha_mix =  0.700 |ddv_scf|^2 =  1.509E-14

      iter #  14 total cpu time :  1135.5 secs   av.it.:  12.2
      thresh= 1.228E-08 alpha_mix =  0.700 |ddv_scf|^2 =  3.051E-15

      iter #  15 total cpu time :  1140.3 secs   av.it.:  12.6
      thresh= 5.524E-09 alpha_mix =  0.700 |ddv_scf|^2 =  1.842E-15

      iter #  16 total cpu time :  1145.1 secs   av.it.:  11.2
      thresh= 4.292E-09 alpha_mix =  0.700 |ddv_scf|^2 =  1.641E-16

      iter #  17 total cpu time :  1150.0 secs   av.it.:  11.6
      thresh= 1.281E-09 alpha_mix =  0.700 |ddv_scf|^2 =  1.782E-17

      iter #  18 total cpu time :  1154.3 secs   av.it.:  11.5
      thresh= 4.221E-10 alpha_mix =  0.700 |ddv_scf|^2 =  3.757E-19

      iter #  19 total cpu time :  1160.2 secs   av.it.:  13.2
      thresh= 6.129E-11 alpha_mix =  0.700 |ddv_scf|^2 =  1.392E-19

      iter #  20 total cpu time :  1167.8 secs   av.it.:  12.8
      thresh= 3.731E-11 alpha_mix =  0.700 |ddv_scf|^2 =  7.177E-20

      iter #  21 total cpu time :  1172.8 secs   av.it.:  11.5
      thresh= 2.679E-11 alpha_mix =  0.700 |ddv_scf|^2 =  1.379E-21

      iter #  22 total cpu time :  1177.8 secs   av.it.:  13.3
      thresh= 3.714E-12 alpha_mix =  0.700 |ddv_scf|^2 =  1.244E-21

      iter #  23 total cpu time :  1182.3 secs   av.it.:  11.6
      thresh= 3.526E-12 alpha_mix =  0.700 |ddv_scf|^2 =  2.058E-22

     End of self-consistent calculation

     Convergence has been achieved 


     Representation #   2 mode #   2

     Self-consistent Calculation

      iter #   1 total cpu time :  1186.3 secs   av.it.:   9.1
      thresh= 1.000E-02 alpha_mix =  0.700 |ddv_scf|^2 =  6.146E-04

      iter #   2 total cpu time :  1192.5 secs   av.it.:  15.6
      thresh= 2.479E-03 alpha_mix =  0.700 |ddv_scf|^2 =  6.290E-01

      iter #   3 total cpu time :  1198.2 secs   av.it.:  13.2
      thresh= 1.000E-02 alpha_mix =  0.700 |ddv_scf|^2 =  3.644E-04

      iter #   4 total cpu time :  1203.0 secs   av.it.:  13.2
      thresh= 1.909E-03 alpha_mix =  0.700 |ddv_scf|^2 =  1.030E-03

      iter #   5 total cpu time :  1207.4 secs   av.it.:  11.6
      thresh= 3.209E-03 alpha_mix =  0.700 |ddv_scf|^2 =  1.370E-06

      iter #   6 total cpu time :  1212.6 secs   av.it.:  13.9
      thresh= 1.171E-04 alpha_mix =  0.700 |ddv_scf|^2 =  5.258E-05

      iter #   7 total cpu time :  1217.6 secs   av.it.:   9.8
      thresh= 7.252E-04 alpha_mix =  0.700 |ddv_scf|^2 =  1.933E-07

      iter #   8 total cpu time :  1225.5 secs   av.it.:  13.3
      thresh= 4.396E-05 alpha_mix =  0.700 |ddv_scf|^2 =  6.484E-08

      iter #   9 total cpu time :  1231.4 secs   av.it.:  12.2
      thresh= 2.546E-05 alpha_mix =  0.700 |ddv_scf|^2 =  2.467E-10

      iter #  10 total cpu time :  1236.1 secs   av.it.:  11.1
      thresh= 1.571E-06 alpha_mix =  0.700 |ddv_scf|^2 =  3.151E-11

      iter #  11 total cpu time :  1241.2 secs   av.it.:  12.8
      thresh= 5.613E-07 alpha_mix =  0.700 |ddv_scf|^2 =  1.655E-11

      iter #  12 total cpu time :  1246.4 secs   av.it.:  11.6
      thresh= 4.069E-07 alpha_mix =  0.700 |ddv_scf|^2 =  1.037E-12

      iter #  13 total cpu time :  1252.9 secs   av.it.:  12.2
      thresh= 1.018E-07 alpha_mix =  0.700 |ddv_scf|^2 =  1.584E-13

      iter #  14 total cpu time :  1259.9 secs   av.it.:  12.0
      thresh= 3.980E-08 alpha_mix =  0.700 |ddv_scf|^2 =  2.064E-14

      iter #  15 total cpu time :  1264.5 secs   av.it.:  12.1
      thresh= 1.437E-08 alpha_mix =  0.700 |ddv_scf|^2 =  9.306E-16

      iter #  16 total cpu time :  1269.6 secs   av.it.:  12.5
      thresh= 3.051E-09 alpha_mix =  0.700 |ddv_scf|^2 =  2.231E-16

      iter #  17 total cpu time :  1274.7 secs   av.it.:  11.6
      thresh= 1.494E-09 alpha_mix =  0.700 |ddv_scf|^2 =  6.576E-18

      iter #  18 total cpu time :  1279.4 secs   av.it.:  11.6
      thresh= 2.564E-10 alpha_mix =  0.700 |ddv_scf|^2 =  1.347E-18

      iter #  19 total cpu time :  1284.5 secs   av.it.:  11.7
      thresh= 1.161E-10 alpha_mix =  0.700 |ddv_scf|^2 =  2.000E-20

      iter #  20 total cpu time :  1291.1 secs   av.it.:  13.5
      thresh= 1.414E-11 alpha_mix =  0.700 |ddv_scf|^2 =  1.396E-20

      iter #  21 total cpu time :  1297.0 secs   av.it.:  13.2
      thresh= 1.181E-11 alpha_mix =  0.700 |ddv_scf|^2 =  7.668E-21

      iter #  22 total cpu time :  1301.9 secs   av.it.:  10.7
      thresh= 8.756E-12 alpha_mix =  0.700 |ddv_scf|^2 =  1.519E-21

      iter #  23 total cpu time :  1306.2 secs   av.it.:  12.2
      thresh= 3.898E-12 alpha_mix =  0.700 |ddv_scf|^2 =  1.681E-23

     End of self-consistent calculation

     Convergence has been achieved 


     Representation #   3 mode #   3

     Self-consistent Calculation

      iter #   1 total cpu time :  1310.4 secs   av.it.:   8.4
      thresh= 1.000E-02 alpha_mix =  0.700 |ddv_scf|^2 =  6.535E-04

      iter #   2 total cpu time :  1317.4 secs   av.it.:  15.4
      thresh= 2.556E-03 alpha_mix =  0.700 |ddv_scf|^2 =  6.313E-01

      iter #   3 total cpu time :  1323.2 secs   av.it.:  13.2
      thresh= 1.000E-02 alpha_mix =  0.700 |ddv_scf|^2 =  9.535E-06

      iter #   4 total cpu time :  1328.1 secs   av.it.:  12.0
      thresh= 3.088E-04 alpha_mix =  0.700 |ddv_scf|^2 =  9.243E-07

      iter #   5 total cpu time :  1333.0 secs   av.it.:  12.3
      thresh= 9.614E-05 alpha_mix =  0.700 |ddv_scf|^2 =  4.030E-07

      iter #   6 total cpu time :  1337.0 secs   av.it.:   9.9
      thresh= 6.348E-05 alpha_mix =  0.700 |ddv_scf|^2 =  2.532E-07

      iter #   7 total cpu time :  1341.8 secs   av.it.:  11.4
      thresh= 5.032E-05 alpha_mix =  0.700 |ddv_scf|^2 =  1.095E-09

      iter #   8 total cpu time :  1349.1 secs   av.it.:  13.6
      thresh= 3.309E-06 alpha_mix =  0.700 |ddv_scf|^2 =  2.307E-10

      iter #   9 total cpu time :  1355.3 secs   av.it.:  12.5
      thresh= 1.519E-06 alpha_mix =  0.700 |ddv_scf|^2 =  3.093E-11

      iter #  10 total cpu time :  1360.0 secs   av.it.:  12.3
      thresh= 5.562E-07 alpha_mix =  0.700 |ddv_scf|^2 =  1.163E-12

      iter #  11 total cpu time :  1364.5 secs   av.it.:  12.4
      thresh= 1.078E-07 alpha_mix =  0.700 |ddv_scf|^2 =  6.952E-13

      iter #  12 total cpu time :  1369.5 secs   av.it.:  11.5
      thresh= 8.338E-08 alpha_mix =  0.700 |ddv_scf|^2 =  4.515E-16

      iter #  13 total cpu time :  1375.9 secs   av.it.:  15.0
      thresh= 2.125E-09 alpha_mix =  0.700 |ddv_scf|^2 =  1.226E-15

      iter #  14 total cpu time :  1382.5 secs   av.it.:  12.9
      thresh= 3.501E-09 alpha_mix =  0.700 |ddv_scf|^2 =  3.064E-17

      iter #  15 total cpu time :  1387.6 secs   av.it.:  13.3
      thresh= 5.535E-10 alpha_mix =  0.700 |ddv_scf|^2 =  1.417E-17

      iter #  16 total cpu time :  1392.5 secs   av.it.:  11.6
      thresh= 3.764E-10 alpha_mix =  0.700 |ddv_scf|^2 =  3.448E-18

      iter #  17 total cpu time :  1397.0 secs   av.it.:  10.5
      thresh= 1.857E-10 alpha_mix =  0.700 |ddv_scf|^2 =  1.595E-18

      iter #  18 total cpu time :  1401.8 secs   av.it.:  12.2
      thresh= 1.263E-10 alpha_mix =  0.700 |ddv_scf|^2 =  3.020E-19

      iter #  19 total cpu time :  1406.4 secs   av.it.:  12.1
      thresh= 5.495E-11 alpha_mix =  0.700 |ddv_scf|^2 =  1.204E-20

      iter #  20 total cpu time :  1421.8 secs   av.it.:  12.3
      thresh= 1.097E-11 alpha_mix =  0.700 |ddv_scf|^2 =  3.055E-22

     End of self-consistent calculation

     Convergence has been achieved 


     Representation #   4 mode #   4

     Self-consistent Calculation

      iter #   1 total cpu time :  1425.3 secs   av.it.:   7.9
      thresh= 1.000E-02 alpha_mix =  0.700 |ddv_scf|^2 =  5.806E-08

      iter #   2 total cpu time :  1430.9 secs   av.it.:  16.3
      thresh= 2.410E-05 alpha_mix =  0.700 |ddv_scf|^2 =  5.616E-09

      iter #   3 total cpu time :  1437.4 secs   av.it.:  16.1
      thresh= 7.494E-06 alpha_mix =  0.700 |ddv_scf|^2 =  2.271E-10

      iter #   4 total cpu time :  1443.8 secs   av.it.:  14.4
      thresh= 1.507E-06 alpha_mix =  0.700 |ddv_scf|^2 =  6.406E-14

      iter #   5 total cpu time :  1449.2 secs   av.it.:  15.8
      thresh= 2.531E-08 alpha_mix =  0.700 |ddv_scf|^2 =  2.725E-15

      iter #   6 total cpu time :  1458.1 secs   av.it.:  15.1
      thresh= 5.220E-09 alpha_mix =  0.700 |ddv_scf|^2 =  1.078E-17

      iter #   7 total cpu time :  1463.6 secs   av.it.:  16.3
      thresh= 3.284E-10 alpha_mix =  0.700 |ddv_scf|^2 =  4.033E-19

      iter #   8 total cpu time :  1471.7 secs   av.it.:  16.8
      thresh= 6.350E-11 alpha_mix =  0.700 |ddv_scf|^2 =  1.376E-20

      iter #   9 total cpu time :  1477.5 secs   av.it.:  16.4
      thresh= 1.173E-11 alpha_mix =  0.700 |ddv_scf|^2 =  9.251E-22

     End of self-consistent calculation

     Convergence has been achieved 


     Representation #   5 mode #   5

     Self-consistent Calculation

      iter #   1 total cpu time :  1481.9 secs   av.it.:   7.1
      thresh= 1.000E-02 alpha_mix =  0.700 |ddv_scf|^2 =  9.371E-09

      iter #   2 total cpu time :  1488.2 secs   av.it.:  16.5
      thresh= 9.680E-06 alpha_mix =  0.700 |ddv_scf|^2 =  7.829E-10

      iter #   3 total cpu time :  1494.8 secs   av.it.:  16.1
      thresh= 2.798E-06 alpha_mix =  0.700 |ddv_scf|^2 =  7.763E-11

      iter #   4 total cpu time :  1501.6 secs   av.it.:  15.8
      thresh= 8.811E-07 alpha_mix =  0.700 |ddv_scf|^2 =  1.165E-12

      iter #   5 total cpu time :  1507.3 secs   av.it.:  16.3
      thresh= 1.079E-07 alpha_mix =  0.700 |ddv_scf|^2 =  5.125E-14

      iter #   6 total cpu time :  1514.8 secs   av.it.:  16.5
      thresh= 2.264E-08 alpha_mix =  0.700 |ddv_scf|^2 =  1.488E-16

      iter #   7 total cpu time :  1520.4 secs   av.it.:  16.5
      thresh= 1.220E-09 alpha_mix =  0.700 |ddv_scf|^2 =  4.161E-18

      iter #   8 total cpu time :  1526.7 secs   av.it.:  15.7
      thresh= 2.040E-10 alpha_mix =  0.700 |ddv_scf|^2 =  5.448E-20

      iter #   9 total cpu time :  1533.9 secs   av.it.:  16.1
      thresh= 2.334E-11 alpha_mix =  0.700 |ddv_scf|^2 =  2.259E-21

      iter #  10 total cpu time :  1539.5 secs   av.it.:  16.5
      thresh= 4.753E-12 alpha_mix =  0.700 |ddv_scf|^2 =  1.599E-22

     End of self-consistent calculation

     Convergence has been achieved 


     Representation #   6 mode #   6

     Self-consistent Calculation

      iter #   1 total cpu time :  1543.9 secs   av.it.:   8.0
      thresh= 1.000E-02 alpha_mix =  0.700 |ddv_scf|^2 =  7.155E-08

      iter #   2 total cpu time :  1550.6 secs   av.it.:  16.5
      thresh= 2.675E-05 alpha_mix =  0.700 |ddv_scf|^2 =  8.893E-09

      iter #   3 total cpu time :  1556.8 secs   av.it.:  16.2
      thresh= 9.431E-06 alpha_mix =  0.700 |ddv_scf|^2 =  2.514E-10

      iter #   4 total cpu time :  1562.6 secs   av.it.:  14.6
      thresh= 1.586E-06 alpha_mix =  0.700 |ddv_scf|^2 =  1.573E-13

      iter #   5 total cpu time :  1568.6 secs   av.it.:  16.2
      thresh= 3.967E-08 alpha_mix =  0.700 |ddv_scf|^2 =  1.984E-14

      iter #   6 total cpu time :  1577.1 secs   av.it.:  16.3
      thresh= 1.409E-08 alpha_mix =  0.700 |ddv_scf|^2 =  2.632E-16

      iter #   7 total cpu time :  1589.3 secs   av.it.:  16.4
      thresh= 1.622E-09 alpha_mix =  0.700 |ddv_scf|^2 =  1.456E-17

      iter #   8 total cpu time :  1598.6 secs   av.it.:  16.4
      thresh= 3.815E-10 alpha_mix =  0.700 |ddv_scf|^2 =  8.900E-20

      iter #   9 total cpu time :  1604.7 secs   av.it.:  16.7
      thresh= 2.983E-11 alpha_mix =  0.700 |ddv_scf|^2 =  4.308E-21

      iter #  10 total cpu time :  1611.9 secs   av.it.:  16.5
      thresh= 6.563E-12 alpha_mix =  0.700 |ddv_scf|^2 =  2.377E-22

     End of self-consistent calculation

     Convergence has been achieved 


     Representation #   7 mode #   7

     Self-consistent Calculation

      iter #   1 total cpu time :  1615.7 secs   av.it.:   8.4
      thresh= 1.000E-02 alpha_mix =  0.700 |ddv_scf|^2 =  4.209E-06

      iter #   2 total cpu time :  1621.2 secs   av.it.:  15.7
      thresh= 2.052E-04 alpha_mix =  0.700 |ddv_scf|^2 =  3.667E-05

[...]
      thresh= 9.091E-04 alpha_mix =  0.700 |ddv_scf|^2 =  8.868E-08

      iter #   4 total cpu time : 12693.9 secs   av.it.:  15.8
      thresh= 2.978E-05 alpha_mix =  0.700 |ddv_scf|^2 =  4.341E-09

      iter #   5 total cpu time : 12705.7 secs   av.it.:  16.1
      thresh= 6.589E-06 alpha_mix =  0.700 |ddv_scf|^2 =  6.177E-10

      iter #   6 total cpu time : 12719.8 secs   av.it.:  16.1
      thresh= 2.485E-06 alpha_mix =  0.700 |ddv_scf|^2 =  2.415E-11

      iter #   7 total cpu time : 12731.2 secs   av.it.:  16.7
      thresh= 4.914E-07 alpha_mix =  0.700 |ddv_scf|^2 =  5.993E-11

      iter #   8 total cpu time : 12742.7 secs   av.it.:  15.4
      thresh= 7.742E-07 alpha_mix =  0.700 |ddv_scf|^2 =  6.854E-11

      iter #   9 total cpu time : 12754.1 secs   av.it.:  14.7
      thresh= 8.279E-07 alpha_mix =  0.700 |ddv_scf|^2 =  1.429E-11

      iter #  10 total cpu time : 12763.9 secs   av.it.:  14.8
      thresh= 3.780E-07 alpha_mix =  0.700 |ddv_scf|^2 =  2.031E-12

      iter #  11 total cpu time : 12776.1 secs   av.it.:  15.6
      thresh= 1.425E-07 alpha_mix =  0.700 |ddv_scf|^2 =  2.901E-13

      iter #  12 total cpu time : 12788.2 secs   av.it.:  15.8
      thresh= 5.386E-08 alpha_mix =  0.700 |ddv_scf|^2 =  2.060E-14

      iter #  13 total cpu time : 12799.4 secs   av.it.:  16.2
      thresh= 1.435E-08 alpha_mix =  0.700 |ddv_scf|^2 =  8.443E-15

      iter #  14 total cpu time : 12813.9 secs   av.it.:  16.2
      thresh= 9.189E-09 alpha_mix =  0.700 |ddv_scf|^2 =  3.376E-14

      iter #  15 total cpu time : 12824.0 secs   av.it.:  14.6
      thresh= 1.837E-08 alpha_mix =  0.700 |ddv_scf|^2 =  6.792E-15

      iter #  16 total cpu time : 12835.4 secs   av.it.:  15.2
      thresh= 8.241E-09 alpha_mix =  0.700 |ddv_scf|^2 =  2.558E-15

      iter #  17 total cpu time : 12848.8 secs   av.it.:  15.4
      thresh= 5.058E-09 alpha_mix =  0.700 |ddv_scf|^2 =  1.129E-15

      iter #  18 total cpu time : 12859.2 secs   av.it.:  15.6
      thresh= 3.360E-09 alpha_mix =  0.700 |ddv_scf|^2 =  4.225E-16

      iter #  19 total cpu time : 12870.2 secs   av.it.:  15.1
      thresh= 2.056E-09 alpha_mix =  0.700 |ddv_scf|^2 =  1.828E-17

      iter #  20 total cpu time : 12883.9 secs   av.it.:  16.6
      thresh= 4.275E-10 alpha_mix =  0.700 |ddv_scf|^2 =  2.120E-17

      iter #  21 total cpu time : 12896.5 secs   av.it.:  16.3
      thresh= 4.605E-10 alpha_mix =  0.700 |ddv_scf|^2 =  8.042E-17

      iter #  22 total cpu time : 12907.9 secs   av.it.:  14.8
      thresh= 8.968E-10 alpha_mix =  0.700 |ddv_scf|^2 =  8.602E-18

      iter #  23 total cpu time : 12918.8 secs   av.it.:  15.5
      thresh= 2.933E-10 alpha_mix =  0.700 |ddv_scf|^2 =  1.796E-18

      iter #  24 total cpu time : 12931.6 secs   av.it.:  16.7
      thresh= 1.340E-10 alpha_mix =  0.700 |ddv_scf|^2 =  2.599E-17

      iter #  25 total cpu time : 12943.2 secs   av.it.:  14.2
      thresh= 5.098E-10 alpha_mix =  0.700 |ddv_scf|^2 =  1.481E-19

      iter #  26 total cpu time : 12953.8 secs   av.it.:  16.0
      thresh= 3.848E-11 alpha_mix =  0.700 |ddv_scf|^2 =  4.810E-20

      iter #  27 total cpu time : 12978.1 secs   av.it.:  16.3
      thresh= 2.193E-11 alpha_mix =  0.700 |ddv_scf|^2 =  6.524E-20

      iter #  28 total cpu time : 12989.6 secs   av.it.:  15.4
      thresh= 2.554E-11 alpha_mix =  0.700 |ddv_scf|^2 =  6.420E-20

      iter #  29 total cpu time : 13001.7 secs   av.it.:  15.1
      thresh= 2.534E-11 alpha_mix =  0.700 |ddv_scf|^2 =  8.741E-21

      iter #  30 total cpu time : 13013.4 secs   av.it.:  15.8
      thresh= 9.349E-12 alpha_mix =  0.700 |ddv_scf|^2 =  1.045E-21

      iter #  31 total cpu time : 13029.7 secs   av.it.:  16.2
      thresh= 3.233E-12 alpha_mix =  0.700 |ddv_scf|^2 =  2.009E-21

      iter #  32 total cpu time : 13039.8 secs   av.it.:  15.1
      thresh= 4.483E-12 alpha_mix =  0.700 |ddv_scf|^2 =  1.142E-22

     End of self-consistent calculation

     Convergence has been achieved 


     Representation #   6 mode #   6

     Self-consistent Calculation

      iter #   1 total cpu time : 13048.6 secs   av.it.:   8.3
      thresh= 1.000E-02 alpha_mix =  0.700 |ddv_scf|^2 =  8.204E-07

      iter #   2 total cpu time : 13060.4 secs   av.it.:  16.3
      thresh= 9.057E-05 alpha_mix =  0.700 |ddv_scf|^2 =  1.266E-06

      iter #   3 total cpu time : 13071.7 secs   av.it.:  15.2
      thresh= 1.125E-04 alpha_mix =  0.700 |ddv_scf|^2 =  2.628E-08

      iter #   4 total cpu time : 13089.3 secs   av.it.:  15.7
      thresh= 1.621E-05 alpha_mix =  0.700 |ddv_scf|^2 =  3.405E-10

      iter #   5 total cpu time : 13100.8 secs   av.it.:  15.7
      thresh= 1.845E-06 alpha_mix =  0.700 |ddv_scf|^2 =  1.638E-11

      iter #   6 total cpu time : 13111.3 secs   av.it.:  16.1
      thresh= 4.047E-07 alpha_mix =  0.700 |ddv_scf|^2 =  4.665E-14

      iter #   7 total cpu time : 13124.2 secs   av.it.:  15.9
      thresh= 2.160E-08 alpha_mix =  0.700 |ddv_scf|^2 =  2.840E-15

      iter #   8 total cpu time : 13135.8 secs   av.it.:  15.6
      thresh= 5.329E-09 alpha_mix =  0.700 |ddv_scf|^2 =  2.827E-16

      iter #   9 total cpu time : 13147.7 secs   av.it.:  16.6
      thresh= 1.681E-09 alpha_mix =  0.700 |ddv_scf|^2 =  3.267E-16

      iter #  10 total cpu time : 13160.3 secs   av.it.:  15.4
      thresh= 1.807E-09 alpha_mix =  0.700 |ddv_scf|^2 =  1.260E-17

      iter #  11 total cpu time : 13173.4 secs   av.it.:  16.1
      thresh= 3.550E-10 alpha_mix =  0.700 |ddv_scf|^2 =  1.690E-18

      iter #  12 total cpu time : 13190.4 secs   av.it.:  16.1
      thresh= 1.300E-10 alpha_mix =  0.700 |ddv_scf|^2 =  6.465E-19

      iter #  13 total cpu time : 13204.3 secs   av.it.:  15.6
      thresh= 8.040E-11 alpha_mix =  0.700 |ddv_scf|^2 =  3.861E-20

      iter #  14 total cpu time : 13218.7 secs   av.it.:  16.2
      thresh= 1.965E-11 alpha_mix =  0.700 |ddv_scf|^2 =  3.394E-21

      iter #  15 total cpu time : 13229.7 secs   av.it.:  16.4
      thresh= 5.826E-12 alpha_mix =  0.700 |ddv_scf|^2 =  6.292E-22

     End of self-consistent calculation

     Convergence has been achieved 


     Representation #   7 mode #   7

     Self-consistent Calculation

      iter #   1 total cpu time : 13243.4 secs   av.it.:   7.7
      thresh= 1.000E-02 alpha_mix =  0.700 |ddv_scf|^2 =  2.142E-07

      iter #   2 total cpu time : 13254.9 secs   av.it.:  16.5
      thresh= 4.628E-05 alpha_mix =  0.700 |ddv_scf|^2 =  4.291E-07

      iter #   3 total cpu time : 13273.1 secs   av.it.:  15.1
      thresh= 6.551E-05 alpha_mix =  0.700 |ddv_scf|^2 =  2.937E-09

      iter #   4 total cpu time : 13285.3 secs   av.it.:  15.9
      thresh= 5.420E-06 alpha_mix =  0.700 |ddv_scf|^2 =  1.286E-10

      iter #   5 total cpu time : 13295.8 secs   av.it.:  15.8
      thresh= 1.134E-06 alpha_mix =  0.700 |ddv_scf|^2 =  3.938E-12

      iter #   6 total cpu time : 13310.5 secs   av.it.:  16.1
      thresh= 1.984E-07 alpha_mix =  0.700 |ddv_scf|^2 =  1.510E-13

      iter #   7 total cpu time : 13322.5 secs   av.it.:  16.2
      thresh= 3.886E-08 alpha_mix =  0.700 |ddv_scf|^2 =  1.615E-15

      iter #   8 total cpu time : 13333.9 secs   av.it.:  16.2
      thresh= 4.019E-09 alpha_mix =  0.700 |ddv_scf|^2 =  3.967E-16

      iter #   9 total cpu time : 13348.8 secs   av.it.:  16.4
      thresh= 1.992E-09 alpha_mix =  0.700 |ddv_scf|^2 =  1.843E-16

      iter #  10 total cpu time : 13359.1 secs   av.it.:  15.9
      thresh= 1.358E-09 alpha_mix =  0.700 |ddv_scf|^2 =  2.695E-17

      iter #  11 total cpu time : 13370.6 secs   av.it.:  15.8
      thresh= 5.192E-10 alpha_mix =  0.700 |ddv_scf|^2 =  9.347E-19

      iter #  12 total cpu time : 13386.2 secs   av.it.:  16.1
      thresh= 9.668E-11 alpha_mix =  0.700 |ddv_scf|^2 =  1.751E-19

      iter #  13 total cpu time : 13398.2 secs   av.it.:  16.1
      thresh= 4.185E-11 alpha_mix =  0.700 |ddv_scf|^2 =  2.791E-20

      iter #  14 total cpu time : 13411.6 secs   av.it.:  16.1
      thresh= 1.671E-11 alpha_mix =  0.700 |ddv_scf|^2 =  2.029E-21

      iter #  15 total cpu time : 13421.9 secs   av.it.:  16.2
      thresh= 4.505E-12 alpha_mix =  0.700 |ddv_scf|^2 =  1.595E-22

     End of self-consistent calculation

     Convergence has been achieved 


     Representation #   8 mode #   8

     Self-consistent Calculation

      iter #   1 total cpu time : 13429.9 secs   av.it.:   8.1
      thresh= 1.000E-02 alpha_mix =  0.700 |ddv_scf|^2 =  2.569E-07

      iter #   2 total cpu time : 13443.5 secs   av.it.:  16.3
      thresh= 5.069E-05 alpha_mix =  0.700 |ddv_scf|^2 =  3.061E-07

      iter #   3 total cpu time : 13454.6 secs   av.it.:  15.4
      thresh= 5.533E-05 alpha_mix =  0.700 |ddv_scf|^2 =  1.806E-08

      iter #   4 total cpu time : 13469.6 secs   av.it.:  15.4
      thresh= 1.344E-05 alpha_mix =  0.700 |ddv_scf|^2 =  3.464E-10

      iter #   5 total cpu time : 13480.4 secs   av.it.:  15.5
      thresh= 1.861E-06 alpha_mix =  0.700 |ddv_scf|^2 =  2.210E-11

      iter #   6 total cpu time : 13492.8 secs   av.it.:  15.9
      thresh= 4.701E-07 alpha_mix =  0.700 |ddv_scf|^2 =  1.001E-13

      iter #   7 total cpu time : 13506.7 secs   av.it.:  15.0
      thresh= 3.165E-08 alpha_mix =  0.700 |ddv_scf|^2 =  7.702E-15

      iter #   8 total cpu time : 13518.4 secs   av.it.:  15.2
      thresh= 8.776E-09 alpha_mix =  0.700 |ddv_scf|^2 =  2.002E-16

      iter #   9 total cpu time : 13531.6 secs   av.it.:  16.1
      thresh= 1.415E-09 alpha_mix =  0.700 |ddv_scf|^2 =  1.463E-17

      iter #  10 total cpu time : 13543.3 secs   av.it.:  16.3
      thresh= 3.824E-10 alpha_mix =  0.700 |ddv_scf|^2 =  1.143E-17

      iter #  11 total cpu time : 13554.2 secs   av.it.:  15.3
      thresh= 3.381E-10 alpha_mix =  0.700 |ddv_scf|^2 =  2.484E-19

      iter #  12 total cpu time : 13568.2 secs   av.it.:  16.4
      thresh= 4.984E-11 alpha_mix =  0.700 |ddv_scf|^2 =  1.640E-19

      iter #  13 total cpu time : 13579.1 secs   av.it.:  15.6
      thresh= 4.049E-11 alpha_mix =  0.700 |ddv_scf|^2 =  6.486E-21

      iter #  14 total cpu time : 13591.5 secs   av.it.:  16.0
      thresh= 8.053E-12 alpha_mix =  0.700 |ddv_scf|^2 =  1.000E-21

      iter #  15 total cpu time : 13605.2 secs   av.it.:  16.1
      thresh= 3.162E-12 alpha_mix =  0.700 |ddv_scf|^2 =  6.215E-23

     End of self-consistent calculation

     Convergence has been achieved 


     Representation #   9 mode #   9

     Self-consistent Calculation

      iter #   1 total cpu time : 13612.2 secs   av.it.:   8.1
      thresh= 1.000E-02 alpha_mix =  0.700 |ddv_scf|^2 =  2.906E-07

      iter #   2 total cpu time : 13626.2 secs   av.it.:  16.4
      thresh= 5.391E-05 alpha_mix =  0.700 |ddv_scf|^2 =  3.846E-07

      iter #   3 total cpu time : 13636.3 secs   av.it.:  15.3
      thresh= 6.202E-05 alpha_mix =  0.700 |ddv_scf|^2 =  1.308E-08

      iter #   4 total cpu time : 13648.2 secs   av.it.:  15.7
      thresh= 1.144E-05 alpha_mix =  0.700 |ddv_scf|^2 =  4.481E-10

      iter #   5 total cpu time : 13661.3 secs   av.it.:  16.0
      thresh= 2.117E-06 alpha_mix =  0.700 |ddv_scf|^2 =  4.891E-11

      iter #   6 total cpu time : 13672.0 secs   av.it.:  15.9
      thresh= 6.994E-07 alpha_mix =  0.700 |ddv_scf|^2 =  4.769E-14

      iter #   7 total cpu time : 13684.2 secs   av.it.:  15.7
      thresh= 2.184E-08 alpha_mix =  0.700 |ddv_scf|^2 =  2.576E-15

      iter #   8 total cpu time : 13697.2 secs   av.it.:  15.9
      thresh= 5.075E-09 alpha_mix =  0.700 |ddv_scf|^2 =  4.475E-16

      iter #   9 total cpu time : 13709.6 secs   av.it.:  15.9
      thresh= 2.115E-09 alpha_mix =  0.700 |ddv_scf|^2 =  1.891E-17

      iter #  10 total cpu time : 13727.6 secs   av.it.:  16.4
      thresh= 4.349E-10 alpha_mix =  0.700 |ddv_scf|^2 =  1.122E-18

      iter #  11 total cpu time : 13744.4 secs   av.it.:  16.3
      thresh= 1.059E-10 alpha_mix =  0.700 |ddv_scf|^2 =  6.121E-19

      iter #  12 total cpu time : 13758.0 secs   av.it.:  15.9
      thresh= 7.824E-11 alpha_mix =  0.700 |ddv_scf|^2 =  2.282E-19

      iter #  13 total cpu time : 13769.5 secs   av.it.:  15.6
      thresh= 4.777E-11 alpha_mix =  0.700 |ddv_scf|^2 =  4.884E-21

      iter #  14 total cpu time : 13781.5 secs   av.it.:  16.2
      thresh= 6.989E-12 alpha_mix =  0.700 |ddv_scf|^2 =  4.553E-22

     End of self-consistent calculation

     Convergence has been achieved 
 
     Number of q in the star =    6
     List of q in the star:
          1   0.083333333   0.433012702   0.000000000
          2  -0.083333333   0.433012702   0.000000000
          3   0.333333333  -0.288675135   0.000000000
          4  -0.416666667  -0.144337567   0.000000000
          5  -0.333333333  -0.288675135   0.000000000
          6   0.416666667  -0.144337567   0.000000000
     In addition there is the -q list: 
          1  -0.083333333  -0.433012702   0.000000000
          2   0.083333333  -0.433012702   0.000000000
          3  -0.333333333   0.288675135   0.000000000
          4   0.416666667   0.144337567   0.000000000
          5   0.333333333   0.288675135   0.000000000
          6  -0.416666667   0.144337567   0.000000000

     Diagonalizing the dynamical matrix

     q = (    0.083333333   0.433012702   0.000000000 ) 

 **************************************************************************
     freq (    1) =      -2.639859 [THz] =     -88.056224 [cm-1]
     freq (    2) =       2.199407 [THz] =      73.364329 [cm-1]
     freq (    3) =       2.879589 [THz] =      96.052738 [cm-1]
     freq (    4) =       6.774685 [THz] =     225.979157 [cm-1]
     freq (    5) =       8.263307 [THz] =     275.634264 [cm-1]
     freq (    6) =       9.199991 [THz] =     306.878671 [cm-1]
     freq (    7) =       9.297516 [THz] =     310.131762 [cm-1]
     freq (    8) =       9.737614 [THz] =     324.811837 [cm-1]
     freq (    9) =      11.365401 [THz] =     379.108965 [cm-1]
 **************************************************************************

     Mode symmetry, C_s (m)     point group:

     freq (   1-   1) =        -88.1  [cm-1]   --> A'                 
     freq (   2-   2) =         73.4  [cm-1]   --> A''                
     freq (   3-   3) =         96.1  [cm-1]   --> A'                 
     freq (   4-   4) =        226.0  [cm-1]   --> A'                 
     freq (   5-   5) =        275.6  [cm-1]   --> A''                
     freq (   6-   6) =        306.9  [cm-1]   --> A''                
     freq (   7-   7) =        310.1  [cm-1]   --> A'                 
     freq (   8-   8) =        324.8  [cm-1]   --> A''                
     freq (   9-   9) =        379.1  [cm-1]   --> A'                 
 
     init_run     :      1.78s CPU      3.94s WALL (      10 calls)
     electrons    :    271.04s CPU    278.25s WALL (      10 calls)

     Called by init_run:
     wfcinit      :      0.00s CPU      0.07s WALL (      10 calls)
     potinit      :      0.15s CPU      2.17s WALL (      10 calls)
     hinit0       :      0.94s CPU      0.95s WALL (      10 calls)

     Called by electrons:
     c_bands      :    270.97s CPU    278.18s WALL (      10 calls)
     v_of_rho     :      0.13s CPU      0.13s WALL (      11 calls)

     Called by c_bands:
     init_us_2    :     31.06s CPU     32.95s WALL (  255596 calls)
     init_us_2:cp :     30.40s CPU     32.35s WALL (  255596 calls)
     cegterg      :    155.04s CPU    159.11s WALL (    3749 calls)

     Called by *egterg:
     cdiaghg      :     23.40s CPU     24.04s WALL (   56039 calls)
     h_psi        :   6058.45s CPU   6275.89s WALL ( 4812698 calls)
     g_psi        :      1.11s CPU      1.14s WALL (   53397 calls)

     Called by h_psi:
     h_psi:calbec :    284.28s CPU    294.33s WALL ( 4812698 calls)
     vloc_psi     :   5512.79s CPU   5711.00s WALL ( 4812698 calls)
     add_vuspsi   :    211.68s CPU    220.97s WALL ( 4812698 calls)

     General routines
     calbec       :    514.99s CPU    535.08s WALL ( 9627466 calls)
     fft          :     13.22s CPU     13.54s WALL (   22573 calls)
     ffts         :      5.08s CPU      5.20s WALL (   17459 calls)
     fftw         :   6238.12s CPU   6462.01s WALL (66659596 calls)
     interpolate  :      2.73s CPU      2.86s WALL (    3443 calls)
     davcio       :     35.06s CPU    257.00s WALL ( 1179262 calls)
 
     Parallel routines
 
     PHONON       :      3h24m CPU      3h49m WALL

     INITIALIZATION: 
     phq_setup    :      0.37s CPU      0.43s WALL (      11 calls)
     phq_init     :      4.44s CPU      4.80s WALL (      11 calls)
 
     phq_init     :      4.44s CPU      4.80s WALL (      11 calls)
     init_vloc    :      0.69s CPU      0.69s WALL (      11 calls)
     init_us_1    :      0.25s CPU      0.26s WALL (      11 calls)
     init_us_2    :     31.06s CPU     32.95s WALL (  255596 calls)
 
     DYNAMICAL MATRIX:
     dynmat0      :      2.26s CPU      2.54s WALL (      11 calls)
     phqscf       :  11963.08s CPU  13441.39s WALL (      11 calls)
     dynmatrix    :      0.02s CPU      0.09s WALL (      11 calls)
 
     phqscf       :  11963.08s CPU  13441.39s WALL (      11 calls)
     solve_linter :  11955.27s CPU  13417.55s WALL (      96 calls)
     drhodv       :      7.65s CPU      8.16s WALL (      96 calls)
 
     dynmat0      :      2.26s CPU      2.54s WALL (      11 calls)
     dynmat_us    :      2.21s CPU      2.26s WALL (      11 calls)
     d2ionq       :      0.04s CPU      0.04s WALL (      11 calls)
 
     dynmat_us    :      2.21s CPU      2.26s WALL (      11 calls)
 
     phqscf       :  11963.08s CPU  13441.39s WALL (      11 calls)
     solve_linter :  11955.27s CPU  13417.55s WALL (      96 calls)
 
     solve_linter :  11955.27s CPU  13417.55s WALL (      96 calls)
     dvqpsi_us    :     38.41s CPU     39.84s WALL (   12078 calls)
     sth_kernel   :  11230.38s CPU  11682.72s WALL (    1681 calls)
     apply_dpot_b :    375.27s CPU    399.56s WALL (  214603 calls)
     ortho        :     24.86s CPU     26.36s WALL (  226681 calls)
     cgsolve      :   6698.48s CPU   6940.13s WALL (  226681 calls)
     incdrhoscf   :    846.90s CPU    867.28s WALL (  226681 calls)
     dv_of_drho   :     17.38s CPU     17.84s WALL (    1708 calls)
     mix_pot      :    123.69s CPU    888.23s WALL (    1681 calls)
     ef_shift     :      0.11s CPU      0.13s WALL (      67 calls)
     ef_shift_wfc :      0.01s CPU      0.01s WALL (       6 calls)
     localdos     :      0.30s CPU      0.32s WALL (       6 calls)
     psymdvscf    :     89.15s CPU     90.28s WALL (    1681 calls)
 
     dvqpsi_us    :     38.41s CPU     39.84s WALL (   12078 calls)
     dvqpsi_us_on :      3.21s CPU      3.34s WALL (   12078 calls)
 
     cgsolve      :   6698.48s CPU   6940.13s WALL (  226681 calls)
     ch_psi       :   6542.45s CPU   6776.37s WALL ( 4752910 calls)
 
     ch_psi       :   6542.45s CPU   6776.37s WALL ( 4752910 calls)
     h_psi        :   6058.45s CPU   6275.89s WALL ( 4812698 calls)
     last         :    537.00s CPU    556.21s WALL ( 4752910 calls)
 
     h_psi        :   6058.45s CPU   6275.89s WALL ( 4812698 calls)
     add_vuspsi   :    211.68s CPU    220.97s WALL ( 4812698 calls)
 
     incdrhoscf   :    846.90s CPU    867.28s WALL (  226681 calls)
 
 
      General routines
     calbec       :    514.99s CPU    535.08s WALL ( 9627466 calls)
     fft          :     13.22s CPU     13.54s WALL (   22573 calls)
     ffts         :      5.08s CPU      5.20s WALL (   17459 calls)
     fftw         :   6238.12s CPU   6462.01s WALL (66659596 calls)
     davcio       :     35.06s CPU    257.00s WALL ( 1179262 calls)
     write_rec    :      1.56s CPU    252.97s WALL (    1777 calls)
 
 
     PHONON       :      3h24m CPU      3h49m WALL

 
   This run was terminated on:   4: 6:12   8Jun2022            

=------------------------------------------------------------------------------=
   JOB DONE.
=------------------------------------------------------------------------------=
