
     Program PHONON v.7.0 starts on  8Jun2022 at  0:16:27 

     This program is part of the open-source Quantum ESPRESSO suite
     for quantum simulation of materials; please cite
         "P. Giannozzi et al., J. Phys.:Condens. Matter 21 395502 (2009);
         "P. Giannozzi et al., J. Phys.:Condens. Matter 29 465901 (2017);
         "P. Giannozzi et al., J. Chem. Phys. 152 154105 (2020);
          URL http://www.quantum-espresso.org", 
     in publications or presentations arising from this work. More details at
     http://www.quantum-espresso.org/quote

     Parallel version (MPI), running on   108 processors

     MPI processes distributed on     6 nodes
     path-images division:  nimage    =       2
     K-points division:     npool     =       3
     R & G space division:  proc/nbgrp/npool/nimage =      18
     44599 MiB available memory on the printing compute node when the environment starts
 

     Reading xml data from directory:

     /fastscratch/tsievers/QE_TMP_DIR/TaS2_24_ph_bench_nimages_2_n_procs_108_0.save/

     IMPORTANT: XC functional enforced from input :
     Exchange-correlation= PBE
                           (   1   4   3   4   0   0   0)
     Any further DFT definition will be discarded
     Please, verify this is what you really want

 
     Parallelization info
     --------------------
     sticks:   dense  smooth     PW     G-vecs:    dense   smooth      PW
     Min          60      31      9                 7329     2593     419
     Max          62      32     10                 7342     2605     434
     Sum        1099     559    163               132031    46753    7647
 
     Using Slab Decomposition
 
 ----2D----2D----2D----2D----2D----2D----2D----2D----2D----2D----2D----2D
  The code is running with the 2D cutoff
  Please refer to:
  Sohier, T., Calandra, M., & Mauri, F. (2017), 
  Density functional perturbation theory for gated two-dimensional heterostructu
 res:
  Theoretical developments and application to flexural phonons in graphene.
  Physical Review B, 96(7), 75448. https://doi.org/10.1103/PhysRevB.96.075448
 ----2D----2D----2D----2D----2D----2D----2D----2D----2D----2D----2D----2D
     Reading collected, re-writing distributed wavefunctions


     Dynamical matrices for (12,12, 1)  uniform grid of q-points
     (  19 q-points):
       N         xq(1)         xq(2)         xq(3) 
       1   0.000000000   0.000000000   0.000000000
       2   0.000000000   0.096225045   0.000000000
       3   0.000000000   0.192450090   0.000000000
       4   0.000000000   0.288675135   0.000000000
       5   0.000000000   0.384900179   0.000000000
       6   0.000000000   0.481125224   0.000000000
       7   0.000000000  -0.577350269   0.000000000
       8   0.083333333   0.144337567   0.000000000
       9   0.083333333   0.240562612   0.000000000
      10   0.083333333   0.336787657   0.000000000
      11   0.083333333   0.433012702   0.000000000
      12   0.083333333   0.529237747   0.000000000
      13   0.166666667   0.288675135   0.000000000
      14   0.166666667   0.384900179   0.000000000
      15   0.166666667   0.481125224   0.000000000
      16   0.166666667   0.577350269   0.000000000
      17   0.250000000   0.433012702   0.000000000
      18   0.250000000   0.529237747   0.000000000
      19   0.333333333   0.577350269   0.000000000

     Saving dvscf to file. Distribute only q points, not irreducible represetations.

      Image parallelization. There are  2 images and     2 representations
      The estimated total work is   870 self-consistent (scf) runs
      I am image number     1 and my work is about  440 scf runs. I calculate: 
      q point number    12, representations:
       0 1 2 3 4 5 6 7 8 9
      q point number    13, representations:
       0 1 2 3 4 5 6 7 8 9
      q point number    14, representations:
       0 1 2 3 4 5 6 7 8 9
      q point number    15, representations:
       0 1 2 3 4 5 6 7 8 9
      q point number    16, representations:
       0 1 2 3 4 5 6 7 8 9
      q point number    17, representations:
       0 1 2 3 4 5 6 7 8 9
      q point number    18, representations:
       0 1 2 3 4 5 6 7 8 9
      q point number    19, representations:
       0 1 2 3 4 5 6 7 8 9

     Calculation of q =    0.0833333   0.5292377   0.0000000

     Subspace diagonalization in iterative solution of the eigenvalue problem:
     a serial algorithm will be used

 
     Parallelization info
     --------------------
     sticks:   dense  smooth     PW     G-vecs:    dense   smooth      PW
     Min          60      31     10                 7329     2593     508
     Max          62      32     11                 7342     2605     525
     Sum        1099     559    187               132031    46753    9285
 
     Using Slab Decomposition
 

     Title: 
     TaS2                                                                       


     bravais-lattice index     =            4
     lattice parameter (alat)  =       6.3117  a.u.
     unit-cell volume          =     977.9382 (a.u.)^3
     number of atoms/cell      =            3
     number of atomic types    =            2
     number of electrons       =        17.00
     number of Kohn-Sham states=           13
     kinetic-energy cutoff     =      50.0000  Ry
     charge density cutoff     =     400.0000  Ry
     Exchange-correlation= PBE
                           (   1   4   3   4   0   0   0)

     celldm(1)=   6.311685  celldm(2)=   0.000000  celldm(3)=   4.491018
     celldm(4)=   0.000000  celldm(5)=   0.000000  celldm(6)=   0.000000

     crystal axes: (cart. coord. in units of alat)
               a(1) = (   1.000000   0.000000   0.000000 )  
               a(2) = (  -0.500000   0.866025   0.000000 )  
               a(3) = (   0.000000   0.000000   4.491018 )  

     reciprocal axes: (cart. coord. in units 2 pi/alat)
               b(1) = (  1.000000  0.577350  0.000000 )  
               b(2) = (  0.000000  1.154701  0.000000 )  
               b(3) = (  0.000000  0.000000  0.222667 )  


     PseudoPot. # 1 for Ta read from file:
     /fastscratch/tsievers/TaS2_24_ph_benchmark_images//pseudos/Ta.pbe-hgh.UPF
     MD5 check sum: 129c51a9a4223465c43ca8d238d17e53
     Pseudo is Norm-conserving, Zval =  5.0
     Generated in analytical, separable form
     Using radial grid of 1273 points,  6 beta functions with: 
                l(1) =   0
                l(2) =   0
                l(3) =   1
                l(4) =   1
                l(5) =   2
                l(6) =   2

     PseudoPot. # 2 for S  read from file:
     /fastscratch/tsievers/TaS2_24_ph_benchmark_images//pseudos/S.pbe-hgh.UPF
     MD5 check sum: 3a21e384b95a7cc84d045d3bcc0c4ba8
     Pseudo is Norm-conserving, Zval =  6.0
     Generated in analytical, separable form
     Using radial grid of 1151 points,  3 beta functions with: 
                l(1) =   0
                l(2) =   0
                l(3) =   1

     atomic species   valence    mass     pseudopotential
        Ta             5.00   180.95000     Ta( 1.00)
        S              6.00    32.06000     S ( 1.00)

     12 Sym. Ops. (no inversion) found



   Cartesian axes

     site n.     atom                  positions (alat units)
         1           S   tau(   1) = (  -0.0000000   0.5773503   0.4679048  )
         2           Ta  tau(   2) = (   0.0000000   0.0000000   0.0000000  )
         3           S   tau(   3) = (  -0.0000000   0.5773503  -0.4679048  )

     number of k points=  1152  Marzari-Vanderbilt smearing, width (Ry)=  0.0060

     Number of k-points >= 100: set verbosity='high' to print them.

     Dense  grid:   132031 G-vectors     FFT dimensions: (  45,  45, 192)

     Smooth grid:    46753 G-vectors     FFT dimensions: (  30,  30, 128)

     Estimated max dynamical RAM per process >       6.89 MB

     Estimated total dynamical RAM >     371.81 MB
 ----2D----2D----2D----2D----2D----2D----2D----2D----2D----2D----2D----2D
  The code is running with the 2D cutoff
  Please refer to:
  Sohier, T., Calandra, M., & Mauri, F. (2017), 
  Density functional perturbation theory for gated two-dimensional heterostructu
 res:
  Theoretical developments and application to flexural phonons in graphene.
  Physical Review B, 96(7), 75448. https://doi.org/10.1103/PhysRevB.96.075448
 ----2D----2D----2D----2D----2D----2D----2D----2D----2D----2D----2D----2D

     The potential is recalculated from file :
     /fastscratch/tsievers/QE_TMP_DIR/_ph1/TaS2_24_ph_bench_nimages_2_n_procs_108_0.q_12/TaS2_24_ph_bench_nimages_2_n_procs_108_0.save/charge-density

     Starting wfcs are   27 atomic wfcs

     Band Structure Calculation
     Davidson diagonalization with overlap

     ethr =  5.88E-11,  avg # of iterations = 20.5

     total cpu time spent up to now is       51.4 secs

     End of band structure calculation

     Number of k-points >= 100: set verbosity='high' to print the bands.

     the Fermi energy is    -5.8804 ev

     Writing config to output data dir /fastscratch/tsievers/QE_TMP_DIR/_ph1/TaS2_24_ph_bench_nimages_2_n_procs_108_0.q_12/TaS2_24_ph_bench_nimages_2_n_procs_108_0.save/

     TaS2                                                                       

     bravais-lattice index     =            4
     lattice parameter (alat)  =       6.3117  a.u.
     unit-cell volume          =     977.9382 (a.u.)^3
     number of atoms/cell      =            3
     number of atomic types    =            2
     kinetic-energy cut-off    =      50.0000  Ry
     charge density cut-off    =     400.0000  Ry
     convergence threshold     =      1.0E-21
     beta                      =       0.7000
     number of iterations used =            4
     Exchange-correlation= PBE
                           (   1   4   3   4   0   0   0)


     celldm(1)=    6.31169  celldm(2)=    0.00000  celldm(3)=    4.49102
     celldm(4)=    0.00000  celldm(5)=    0.00000  celldm(6)=    0.00000

     crystal axes: (cart. coord. in units of alat)
               a(1) = (  1.0000  0.0000  0.0000 )  
               a(2) = ( -0.5000  0.8660  0.0000 )  
               a(3) = (  0.0000  0.0000  4.4910 )  

     reciprocal axes: (cart. coord. in units 2 pi/alat)
               b(1) = (  1.0000  0.5774  0.0000 )  
               b(2) = (  0.0000  1.1547  0.0000 )  
               b(3) = (  0.0000  0.0000  0.2227 )  


     Atoms inside the unit cell: 

     Cartesian axes

     site n.  atom      mass           positions (alat units)
        1     S   32.0600   tau(    1) = (   -0.00000    0.57735    0.46790  )
        2     Ta 180.9500   tau(    2) = (    0.00000    0.00000    0.00000  )
        3     S   32.0600   tau(    3) = (   -0.00000    0.57735   -0.46790  )

     Computing dynamical matrix for 
                    q = (   0.0833333   0.5292377   0.0000000 )
 
      2 Sym.Ops. (no q -> -q+G )


     G cutoff =  403.6370  (   7330 G-vectors)     FFT grid: ( 45, 45,192)
     G cutoff =  201.8185  (   2599 G-vectors)  smooth grid: ( 30, 30,128)

     number of k points=  1152  Marzari-Vanderbilt smearing, width (Ry)=  0.0060

     PseudoPot. # 1 for Ta read from file:
     /fastscratch/tsievers/TaS2_24_ph_benchmark_images//pseudos/Ta.pbe-hgh.UPF
     MD5 check sum: 129c51a9a4223465c43ca8d238d17e53
     Pseudo is Norm-conserving, Zval =  5.0
     Generated in analytical, separable form
     Using radial grid of 1273 points,  6 beta functions with: 
                l(1) =   0
                l(2) =   0
                l(3) =   1
                l(4) =   1
                l(5) =   2
                l(6) =   2

     PseudoPot. # 2 for S  read from file:
     /fastscratch/tsievers/TaS2_24_ph_benchmark_images//pseudos/S.pbe-hgh.UPF
     MD5 check sum: 3a21e384b95a7cc84d045d3bcc0c4ba8
     Pseudo is Norm-conserving, Zval =  6.0
     Generated in analytical, separable form
     Using radial grid of 1151 points,  3 beta functions with: 
                l(1) =   0
                l(2) =   0
                l(3) =   1

     Mode symmetry, C_s (m)     point group:


     Atomic displacements:
     There are    9 irreducible representations

     Representation     1      1 modes -  To be done

     Representation     2      1 modes -  To be done

     Representation     3      1 modes -  To be done

     Representation     4      1 modes -  To be done

     Representation     5      1 modes -  To be done

     Representation     6      1 modes -  To be done

     Representation     7      1 modes -  To be done

     Representation     8      1 modes -  To be done

     Representation     9      1 modes -  To be done



     Alpha used in Ewald sum =   2.8000
     PHONON       :     53.25s CPU     59.01s WALL



     Representation #   1 mode #   1

     Self-consistent Calculation

      iter #   1 total cpu time :    67.8 secs   av.it.:   8.9
      thresh= 1.000E-02 alpha_mix =  0.700 |ddv_scf|^2 =  4.730E-06

      iter #   2 total cpu time :    83.1 secs   av.it.:  17.0
      thresh= 2.175E-04 alpha_mix =  0.700 |ddv_scf|^2 =  6.021E-05

      iter #   3 total cpu time :   104.0 secs   av.it.:  14.8
      thresh= 7.759E-04 alpha_mix =  0.700 |ddv_scf|^2 =  1.878E-07

      iter #   4 total cpu time :   116.5 secs   av.it.:  15.6
      thresh= 4.333E-05 alpha_mix =  0.700 |ddv_scf|^2 =  7.695E-09

      iter #   5 total cpu time :   133.5 secs   av.it.:  16.0
      thresh= 8.772E-06 alpha_mix =  0.700 |ddv_scf|^2 =  8.404E-10

      iter #   6 total cpu time :   146.5 secs   av.it.:  16.1
      thresh= 2.899E-06 alpha_mix =  0.700 |ddv_scf|^2 =  7.372E-11

      iter #   7 total cpu time :   161.6 secs   av.it.:  16.5
      thresh= 8.586E-07 alpha_mix =  0.700 |ddv_scf|^2 =  1.017E-11

      iter #   8 total cpu time :   178.2 secs   av.it.:  16.2
      thresh= 3.189E-07 alpha_mix =  0.700 |ddv_scf|^2 =  3.951E-12

      iter #   9 total cpu time :   191.7 secs   av.it.:  16.2
      thresh= 1.988E-07 alpha_mix =  0.700 |ddv_scf|^2 =  9.825E-12

      iter #  10 total cpu time :   205.4 secs   av.it.:  15.2
      thresh= 3.134E-07 alpha_mix =  0.700 |ddv_scf|^2 =  1.135E-12

      iter #  11 total cpu time :   217.9 secs   av.it.:  15.3
      thresh= 1.066E-07 alpha_mix =  0.700 |ddv_scf|^2 =  1.061E-13

      iter #  12 total cpu time :   232.6 secs   av.it.:  15.8
      thresh= 3.257E-08 alpha_mix =  0.700 |ddv_scf|^2 =  1.220E-14

      iter #  13 total cpu time :   247.1 secs   av.it.:  15.8
      thresh= 1.104E-08 alpha_mix =  0.700 |ddv_scf|^2 =  2.113E-15

      iter #  14 total cpu time :   261.6 secs   av.it.:  16.0
      thresh= 4.596E-09 alpha_mix =  0.700 |ddv_scf|^2 =  3.842E-16

      iter #  15 total cpu time :   276.3 secs   av.it.:  17.4
      thresh= 1.960E-09 alpha_mix =  0.700 |ddv_scf|^2 =  2.912E-15

      iter #  16 total cpu time :   289.6 secs   av.it.:  14.8
      thresh= 5.396E-09 alpha_mix =  0.700 |ddv_scf|^2 =  2.399E-17

      iter #  17 total cpu time :   304.9 secs   av.it.:  16.9
      thresh= 4.898E-10 alpha_mix =  0.700 |ddv_scf|^2 =  3.410E-17

      iter #  18 total cpu time :   319.6 secs   av.it.:  15.7
      thresh= 5.839E-10 alpha_mix =  0.700 |ddv_scf|^2 =  5.868E-18

      iter #  19 total cpu time :   333.4 secs   av.it.:  15.6
      thresh= 2.422E-10 alpha_mix =  0.700 |ddv_scf|^2 =  1.773E-19

      iter #  20 total cpu time :   347.2 secs   av.it.:  16.9
      thresh= 4.211E-11 alpha_mix =  0.700 |ddv_scf|^2 =  1.583E-19

      iter #  21 total cpu time :   362.5 secs   av.it.:  16.0
      thresh= 3.979E-11 alpha_mix =  0.700 |ddv_scf|^2 =  6.708E-20

      iter #  22 total cpu time :   375.6 secs   av.it.:  16.3
      thresh= 2.590E-11 alpha_mix =  0.700 |ddv_scf|^2 =  1.325E-19

      iter #  23 total cpu time :   390.8 secs   av.it.:  15.4
      thresh= 3.640E-11 alpha_mix =  0.700 |ddv_scf|^2 =  7.332E-21

      iter #  24 total cpu time :   404.5 secs   av.it.:  15.9
      thresh= 8.563E-12 alpha_mix =  0.700 |ddv_scf|^2 =  2.048E-21

      iter #  25 total cpu time :   418.8 secs   av.it.:  15.8
      thresh= 4.525E-12 alpha_mix =  0.700 |ddv_scf|^2 =  1.259E-22

     End of self-consistent calculation

     Convergence has been achieved 


     Representation #   2 mode #   2

     Self-consistent Calculation

      iter #   1 total cpu time :   426.9 secs   av.it.:   7.5
      thresh= 1.000E-02 alpha_mix =  0.700 |ddv_scf|^2 =  1.044E-07

      iter #   2 total cpu time :   440.7 secs   av.it.:  17.1
      thresh= 3.231E-05 alpha_mix =  0.700 |ddv_scf|^2 =  8.492E-07

      iter #   3 total cpu time :   464.2 secs   av.it.:  15.0
      thresh= 9.215E-05 alpha_mix =  0.700 |ddv_scf|^2 =  2.976E-08

      iter #   4 total cpu time :   478.5 secs   av.it.:  15.7
      thresh= 1.725E-05 alpha_mix =  0.700 |ddv_scf|^2 =  1.629E-09

      iter #   5 total cpu time :   491.4 secs   av.it.:  16.0
      thresh= 4.036E-06 alpha_mix =  0.700 |ddv_scf|^2 =  1.055E-10

      iter #   6 total cpu time :   505.8 secs   av.it.:  16.3
      thresh= 1.027E-06 alpha_mix =  0.700 |ddv_scf|^2 =  6.200E-12

      iter #   7 total cpu time :   520.6 secs   av.it.:  17.1
      thresh= 2.490E-07 alpha_mix =  0.700 |ddv_scf|^2 =  3.528E-12

      iter #   8 total cpu time :   534.8 secs   av.it.:  16.3
      thresh= 1.878E-07 alpha_mix =  0.700 |ddv_scf|^2 =  6.374E-13

      iter #   9 total cpu time :   549.5 secs   av.it.:  16.2
      thresh= 7.984E-08 alpha_mix =  0.700 |ddv_scf|^2 =  8.912E-13

      iter #  10 total cpu time :   561.8 secs   av.it.:  15.5
      thresh= 9.440E-08 alpha_mix =  0.700 |ddv_scf|^2 =  1.801E-13

      iter #  11 total cpu time :   576.8 secs   av.it.:  16.0
      thresh= 4.243E-08 alpha_mix =  0.700 |ddv_scf|^2 =  3.860E-14

      iter #  12 total cpu time :   591.4 secs   av.it.:  16.2
      thresh= 1.965E-08 alpha_mix =  0.700 |ddv_scf|^2 =  4.543E-14

      iter #  13 total cpu time :   605.9 secs   av.it.:  15.2
      thresh= 2.131E-08 alpha_mix =  0.700 |ddv_scf|^2 =  4.846E-15

      iter #  14 total cpu time :   618.9 secs   av.it.:  16.1
      thresh= 6.961E-09 alpha_mix =  0.700 |ddv_scf|^2 =  7.409E-16

      iter #  15 total cpu time :   634.6 secs   av.it.:  17.0
      thresh= 2.722E-09 alpha_mix =  0.700 |ddv_scf|^2 =  2.458E-15

      iter #  16 total cpu time :   647.7 secs   av.it.:  15.3
      thresh= 4.957E-09 alpha_mix =  0.700 |ddv_scf|^2 =  6.044E-16

      iter #  17 total cpu time :   663.1 secs   av.it.:  15.6
      thresh= 2.458E-09 alpha_mix =  0.700 |ddv_scf|^2 =  9.635E-17

      iter #  18 total cpu time :   679.5 secs   av.it.:  16.3
      thresh= 9.816E-10 alpha_mix =  0.700 |ddv_scf|^2 =  1.401E-16

      iter #  19 total cpu time :   693.9 secs   av.it.:  15.3
      thresh= 1.184E-09 alpha_mix =  0.700 |ddv_scf|^2 =  2.475E-17

      iter #  20 total cpu time :   707.3 secs   av.it.:  15.7
      thresh= 4.975E-10 alpha_mix =  0.700 |ddv_scf|^2 =  1.964E-18

      iter #  21 total cpu time :   721.9 secs   av.it.:  16.8
      thresh= 1.401E-10 alpha_mix =  0.700 |ddv_scf|^2 =  8.388E-19

      iter #  22 total cpu time :   736.9 secs   av.it.:  16.9
      thresh= 9.159E-11 alpha_mix =  0.700 |ddv_scf|^2 =  4.528E-18

      iter #  23 total cpu time :   749.8 secs   av.it.:  15.1
      thresh= 2.128E-10 alpha_mix =  0.700 |ddv_scf|^2 =  5.340E-19

      iter #  24 total cpu time :   763.6 secs   av.it.:  15.4
      thresh= 7.308E-11 alpha_mix =  0.700 |ddv_scf|^2 =  6.104E-20

      iter #  25 total cpu time :   777.6 secs   av.it.:  16.2
      thresh= 2.471E-11 alpha_mix =  0.700 |ddv_scf|^2 =  1.065E-19

      iter #  26 total cpu time :   792.1 secs   av.it.:  15.5
      thresh= 3.264E-11 alpha_mix =  0.700 |ddv_scf|^2 =  8.757E-21

      iter #  27 total cpu time :   805.9 secs   av.it.:  16.1
      thresh= 9.358E-12 alpha_mix =  0.700 |ddv_scf|^2 =  1.494E-21

      iter #  28 total cpu time :   819.9 secs   av.it.:  16.4
      thresh= 3.866E-12 alpha_mix =  0.700 |ddv_scf|^2 =  5.403E-22

     End of self-consistent calculation

     Convergence has been achieved 


     Representation #   3 mode #   3

     Self-consistent Calculation

      iter #   1 total cpu time :   828.5 secs   av.it.:   8.5
      thresh= 1.000E-02 alpha_mix =  0.700 |ddv_scf|^2 =  5.112E-07

      iter #   2 total cpu time :   842.5 secs   av.it.:  16.7
      thresh= 7.150E-05 alpha_mix =  0.700 |ddv_scf|^2 =  6.291E-07

      iter #   3 total cpu time :   859.6 secs   av.it.:  15.8
      thresh= 7.932E-05 alpha_mix =  0.700 |ddv_scf|^2 =  1.166E-07

      iter #   4 total cpu time :   873.1 secs   av.it.:  15.3
      thresh= 3.414E-05 alpha_mix =  0.700 |ddv_scf|^2 =  2.853E-08

      iter #   5 total cpu time :   886.6 secs   av.it.:  15.4
      thresh= 1.689E-05 alpha_mix =  0.700 |ddv_scf|^2 =  1.993E-09

      iter #   6 total cpu time :   900.4 secs   av.it.:  16.0
      thresh= 4.464E-06 alpha_mix =  0.700 |ddv_scf|^2 =  1.127E-10

      iter #   7 total cpu time :   917.1 secs   av.it.:  16.8
      thresh= 1.062E-06 alpha_mix =  0.700 |ddv_scf|^2 =  1.515E-11

      iter #   8 total cpu time :   930.8 secs   av.it.:  16.4
      thresh= 3.893E-07 alpha_mix =  0.700 |ddv_scf|^2 =  4.884E-13

      iter #   9 total cpu time :   946.3 secs   av.it.:  16.9
      thresh= 6.989E-08 alpha_mix =  0.700 |ddv_scf|^2 =  9.329E-13

      iter #  10 total cpu time :   959.3 secs   av.it.:  15.6
      thresh= 9.659E-08 alpha_mix =  0.700 |ddv_scf|^2 =  4.322E-13

      iter #  11 total cpu time :   973.1 secs   av.it.:  15.3
      thresh= 6.574E-08 alpha_mix =  0.700 |ddv_scf|^2 =  5.098E-14

      iter #  12 total cpu time :   986.4 secs   av.it.:  15.6
      thresh= 2.258E-08 alpha_mix =  0.700 |ddv_scf|^2 =  6.068E-15

      iter #  13 total cpu time :  1001.4 secs   av.it.:  15.9
      thresh= 7.790E-09 alpha_mix =  0.700 |ddv_scf|^2 =  6.017E-15

      iter #  14 total cpu time :  1013.5 secs   av.it.:  15.2
      thresh= 7.757E-09 alpha_mix =  0.700 |ddv_scf|^2 =  3.469E-16

      iter #  15 total cpu time :  1027.8 secs   av.it.:  16.5
      thresh= 1.863E-09 alpha_mix =  0.700 |ddv_scf|^2 =  1.781E-16

      iter #  16 total cpu time :  1041.8 secs   av.it.:  15.8
      thresh= 1.335E-09 alpha_mix =  0.700 |ddv_scf|^2 =  2.947E-17

      iter #  17 total cpu time :  1055.8 secs   av.it.:  16.3
      thresh= 5.428E-10 alpha_mix =  0.700 |ddv_scf|^2 =  2.270E-17

      iter #  18 total cpu time :  1069.6 secs   av.it.:  16.0
      thresh= 4.764E-10 alpha_mix =  0.700 |ddv_scf|^2 =  1.920E-17

      iter #  19 total cpu time :  1082.3 secs   av.it.:  15.5
      thresh= 4.381E-10 alpha_mix =  0.700 |ddv_scf|^2 =  6.061E-18

      iter #  20 total cpu time :  1096.8 secs   av.it.:  15.3
      thresh= 2.462E-10 alpha_mix =  0.700 |ddv_scf|^2 =  7.200E-19

      iter #  21 total cpu time :  1110.2 secs   av.it.:  15.7
      thresh= 8.486E-11 alpha_mix =  0.700 |ddv_scf|^2 =  1.198E-19

      iter #  22 total cpu time :  1124.2 secs   av.it.:  16.6
      thresh= 3.462E-11 alpha_mix =  0.700 |ddv_scf|^2 =  2.271E-19

      iter #  23 total cpu time :  1136.5 secs   av.it.:  15.3
      thresh= 4.766E-11 alpha_mix =  0.700 |ddv_scf|^2 =  9.310E-21

      iter #  24 total cpu time :  1150.7 secs   av.it.:  16.7
      thresh= 9.649E-12 alpha_mix =  0.700 |ddv_scf|^2 =  2.162E-20

      iter #  25 total cpu time :  1163.3 secs   av.it.:  15.1
      thresh= 1.470E-11 alpha_mix =  0.700 |ddv_scf|^2 =  9.033E-22

     End of self-consistent calculation

     Convergence has been achieved 


     Representation #   4 mode #   4

     Self-consistent Calculation

      iter #   1 total cpu time :  1172.0 secs   av.it.:   8.2
      thresh= 1.000E-02 alpha_mix =  0.700 |ddv_scf|^2 =  1.104E-06

      iter #   2 total cpu time :  1186.6 secs   av.it.:  16.9
      thresh= 1.051E-04 alpha_mix =  0.700 |ddv_scf|^2 =  7.290E-06

      iter #   3 total cpu time :  1201.6 secs   av.it.:  15.1
      thresh= 2.700E-04 alpha_mix =  0.700 |ddv_scf|^2 =  6.080E-07

      iter #   4 total cpu time :  1215.3 secs   av.it.:  15.2
      thresh= 7.798E-05 alpha_mix =  0.700 |ddv_scf|^2 =  1.636E-09

      iter #   5 total cpu time :  1228.1 secs   av.it.:  16.4
      thresh= 4.045E-06 alpha_mix =  0.700 |ddv_scf|^2 =  2.056E-10

      iter #   6 total cpu time :  1241.9 secs   av.it.:  16.2
      thresh= 1.434E-06 alpha_mix =  0.700 |ddv_scf|^2 =  8.945E-12

      iter #   7 total cpu time :  1255.9 secs   av.it.:  16.5
      thresh= 2.991E-07 alpha_mix =  0.700 |ddv_scf|^2 =  1.542E-12

      iter #   8 total cpu time :  1270.2 secs   av.it.:  16.4
      thresh= 1.242E-07 alpha_mix =  0.700 |ddv_scf|^2 =  1.569E-12

      iter #   9 total cpu time :  1285.2 secs   av.it.:  15.6
      thresh= 1.252E-07 alpha_mix =  0.700 |ddv_scf|^2 =  6.337E-13

      iter #  10 total cpu time :  1298.6 secs   av.it.:  15.9
      thresh= 7.961E-08 alpha_mix =  0.700 |ddv_scf|^2 =  6.355E-13

      iter #  11 total cpu time :  1311.9 secs   av.it.:  15.1
      thresh= 7.972E-08 alpha_mix =  0.700 |ddv_scf|^2 =  8.801E-15

      iter #  12 total cpu time :  1325.9 secs   av.it.:  17.1
      thresh= 9.381E-09 alpha_mix =  0.700 |ddv_scf|^2 =  7.817E-15

      iter #  13 total cpu time :  1342.2 secs   av.it.:  16.3
      thresh= 8.841E-09 alpha_mix =  0.700 |ddv_scf|^2 =  1.769E-15

      iter #  14 total cpu time :  1356.0 secs   av.it.:  16.1
      thresh= 4.206E-09 alpha_mix =  0.700 |ddv_scf|^2 =  1.149E-15

      iter #  15 total cpu time :  1370.2 secs   av.it.:  16.0
      thresh= 3.390E-09 alpha_mix =  0.700 |ddv_scf|^2 =  1.432E-15

      iter #  16 total cpu time :  1383.2 secs   av.it.:  15.6
      thresh= 3.784E-09 alpha_mix =  0.700 |ddv_scf|^2 =  1.496E-15

      iter #  17 total cpu time :  1397.1 secs   av.it.:  15.0
      thresh= 3.867E-09 alpha_mix =  0.700 |ddv_scf|^2 =  4.268E-17

      iter #  18 total cpu time :  1417.7 secs   av.it.:  16.5
      thresh= 6.533E-10 alpha_mix =  0.700 |ddv_scf|^2 =  2.606E-17

      iter #  19 total cpu time :  1432.4 secs   av.it.:  15.9
      thresh= 5.105E-10 alpha_mix =  0.700 |ddv_scf|^2 =  5.358E-18

      iter #  20 total cpu time :  1445.7 secs   av.it.:  16.1
      thresh= 2.315E-10 alpha_mix =  0.700 |ddv_scf|^2 =  1.691E-18

      iter #  21 total cpu time :  1460.4 secs   av.it.:  16.6
      thresh= 1.300E-10 alpha_mix =  0.700 |ddv_scf|^2 =  3.555E-18

      iter #  22 total cpu time :  1473.2 secs   av.it.:  15.3
      thresh= 1.886E-10 alpha_mix =  0.700 |ddv_scf|^2 =  1.196E-18

      iter #  23 total cpu time :  1487.5 secs   av.it.:  16.1
      thresh= 1.094E-10 alpha_mix =  0.700 |ddv_scf|^2 =  7.839E-19

      iter #  24 total cpu time :  1501.8 secs   av.it.:  15.8
      thresh= 8.854E-11 alpha_mix =  0.700 |ddv_scf|^2 =  8.133E-20

      iter #  25 total cpu time :  1515.7 secs   av.it.:  15.8
      thresh= 2.852E-11 alpha_mix =  0.700 |ddv_scf|^2 =  2.101E-20

      iter #  26 total cpu time :  1529.5 secs   av.it.:  15.6
      thresh= 1.450E-11 alpha_mix =  0.700 |ddv_scf|^2 =  2.818E-21

      iter #  27 total cpu time :  1543.4 secs   av.it.:  16.0
      thresh= 5.308E-12 alpha_mix =  0.700 |ddv_scf|^2 =  1.217E-21

      iter #  28 total cpu time :  1558.1 secs   av.it.:  16.5
      thresh= 3.489E-12 alpha_mix =  0.700 |ddv_scf|^2 =  2.013E-21

      iter #  29 total cpu time :  1570.1 secs   av.it.:  15.4
      thresh= 4.487E-12 alpha_mix =  0.700 |ddv_scf|^2 =  1.014E-22

     End of self-consistent calculation

     Convergence has been achieved 


     Representation #   5 mode #   5

     Self-consistent Calculation

      iter #   1 total cpu time :  1579.8 secs   av.it.:   8.5
      thresh= 1.000E-02 alpha_mix =  0.700 |ddv_scf|^2 =  1.029E-06

      iter #   2 total cpu time :  1602.1 secs   av.it.:  17.1
      thresh= 1.014E-04 alpha_mix =  0.700 |ddv_scf|^2 =  1.193E-05

      iter #   3 total cpu time :  1618.2 secs   av.it.:  14.8
      thresh= 3.454E-04 alpha_mix =  0.700 |ddv_scf|^2 =  7.282E-08

      iter #   4 total cpu time :  1631.9 secs   av.it.:  15.9
      thresh= 2.699E-05 alpha_mix =  0.700 |ddv_scf|^2 =  3.552E-09

      iter #   5 total cpu time :  1646.4 secs   av.it.:  16.1
      thresh= 5.960E-06 alpha_mix =  0.700 |ddv_scf|^2 =  4.105E-10

      iter #   6 total cpu time :  1659.7 secs   av.it.:  16.1
      thresh= 2.026E-06 alpha_mix =  0.700 |ddv_scf|^2 =  3.418E-11

      iter #   7 total cpu time :  1673.7 secs   av.it.:  16.9
      thresh= 5.846E-07 alpha_mix =  0.700 |ddv_scf|^2 =  9.868E-12

      iter #   8 total cpu time :  1689.7 secs   av.it.:  16.3
      thresh= 3.141E-07 alpha_mix =  0.700 |ddv_scf|^2 =  2.045E-12

      iter #   9 total cpu time :  1703.8 secs   av.it.:  16.0
      thresh= 1.430E-07 alpha_mix =  0.700 |ddv_scf|^2 =  3.026E-12

      iter #  10 total cpu time :  1717.2 secs   av.it.:  15.2
      thresh= 1.739E-07 alpha_mix =  0.700 |ddv_scf|^2 =  1.817E-13

      iter #  11 total cpu time :  1730.0 secs   av.it.:  16.2
      thresh= 4.263E-08 alpha_mix =  0.700 |ddv_scf|^2 =  2.165E-13

      iter #  12 total cpu time :  1744.7 secs   av.it.:  15.1
      thresh= 4.653E-08 alpha_mix =  0.700 |ddv_scf|^2 =  1.209E-14

      iter #  13 total cpu time :  1758.8 secs   av.it.:  16.0
      thresh= 1.099E-08 alpha_mix =  0.700 |ddv_scf|^2 =  2.039E-15

      iter #  14 total cpu time :  1772.8 secs   av.it.:  16.3
      thresh= 4.516E-09 alpha_mix =  0.700 |ddv_scf|^2 =  5.553E-16

      iter #  15 total cpu time :  1786.6 secs   av.it.:  16.6
      thresh= 2.357E-09 alpha_mix =  0.700 |ddv_scf|^2 =  2.062E-15

      iter #  16 total cpu time :  1800.2 secs   av.it.:  15.1
      thresh= 4.541E-09 alpha_mix =  0.700 |ddv_scf|^2 =  1.209E-16

      iter #  17 total cpu time :  1815.1 secs   av.it.:  16.7
      thresh= 1.099E-09 alpha_mix =  0.700 |ddv_scf|^2 =  4.718E-16

      iter #  18 total cpu time :  1828.4 secs   av.it.:  14.9
      thresh= 2.172E-09 alpha_mix =  0.700 |ddv_scf|^2 =  1.461E-17

      iter #  19 total cpu time :  1844.0 secs   av.it.:  16.4
      thresh= 3.823E-10 alpha_mix =  0.700 |ddv_scf|^2 =  8.635E-18

      iter #  20 total cpu time :  1857.9 secs   av.it.:  16.0
      thresh= 2.938E-10 alpha_mix =  0.700 |ddv_scf|^2 =  1.629E-18

      iter #  21 total cpu time :  1872.5 secs   av.it.:  16.2
      thresh= 1.276E-10 alpha_mix =  0.700 |ddv_scf|^2 =  1.791E-18

      iter #  22 total cpu time :  1884.9 secs   av.it.:  15.3
      thresh= 1.338E-10 alpha_mix =  0.700 |ddv_scf|^2 =  2.958E-19

      iter #  23 total cpu time :  1899.0 secs   av.it.:  16.2
      thresh= 5.439E-11 alpha_mix =  0.700 |ddv_scf|^2 =  3.915E-19

      iter #  24 total cpu time :  1912.9 secs   av.it.:  15.2
      thresh= 6.257E-11 alpha_mix =  0.700 |ddv_scf|^2 =  4.915E-20

      iter #  25 total cpu time :  1928.6 secs   av.it.:  16.5
      thresh= 2.217E-11 alpha_mix =  0.700 |ddv_scf|^2 =  2.283E-20

      iter #  26 total cpu time :  1942.7 secs   av.it.:  16.4
      thresh= 1.511E-11 alpha_mix =  0.700 |ddv_scf|^2 =  1.562E-20

      iter #  27 total cpu time :  1957.1 secs   av.it.:  15.8
      thresh= 1.250E-11 alpha_mix =  0.700 |ddv_scf|^2 =  5.399E-21

      iter #  28 total cpu time :  1970.8 secs   av.it.:  15.7
      thresh= 7.348E-12 alpha_mix =  0.700 |ddv_scf|^2 =  2.218E-21

      iter #  29 total cpu time :  1983.9 secs   av.it.:  15.7
      thresh= 4.709E-12 alpha_mix =  0.700 |ddv_scf|^2 =  6.400E-22

     End of self-consistent calculation

     Convergence has been achieved 


     Representation #   6 mode #   6

     Self-consistent Calculation

      iter #   1 total cpu time :  1993.9 secs   av.it.:   8.3
      thresh= 1.000E-02 alpha_mix =  0.700 |ddv_scf|^2 =  6.480E-07

      iter #   2 total cpu time :  2006.9 secs   av.it.:  16.2
      thresh= 8.050E-05 alpha_mix =  0.700 |ddv_scf|^2 =  5.168E-07

      iter #   3 total cpu time :  2024.3 secs   av.it.:  15.4
      thresh= 7.189E-05 alpha_mix =  0.700 |ddv_scf|^2 =  7.274E-09

      iter #   4 total cpu time :  2036.6 secs   av.it.:  15.7
      thresh= 8.529E-06 alpha_mix =  0.700 |ddv_scf|^2 =  5.931E-10

      iter #   5 total cpu time :  2049.8 secs   av.it.:  15.6
      thresh= 2.435E-06 alpha_mix =  0.700 |ddv_scf|^2 =  1.704E-11

      iter #   6 total cpu time :  2063.5 secs   av.it.:  16.1
      thresh= 4.128E-07 alpha_mix =  0.700 |ddv_scf|^2 =  5.229E-14

      iter #   7 total cpu time :  2076.8 secs   av.it.:  15.9
      thresh= 2.287E-08 alpha_mix =  0.700 |ddv_scf|^2 =  3.389E-15

      iter #   8 total cpu time :  2091.8 secs   av.it.:  15.8
      thresh= 5.821E-09 alpha_mix =  0.700 |ddv_scf|^2 =  2.840E-16

      iter #   9 total cpu time :  2106.0 secs   av.it.:  16.1
      thresh= 1.685E-09 alpha_mix =  0.700 |ddv_scf|^2 =  1.403E-17

      iter #  10 total cpu time :  2119.5 secs   av.it.:  16.6
      thresh= 3.746E-10 alpha_mix =  0.700 |ddv_scf|^2 =  7.943E-18

      iter #  11 total cpu time :  2132.8 secs   av.it.:  15.8
      thresh= 2.818E-10 alpha_mix =  0.700 |ddv_scf|^2 =  6.276E-19

      iter #  12 total cpu time :  2146.5 secs   av.it.:  16.3
      thresh= 7.922E-11 alpha_mix =  0.700 |ddv_scf|^2 =  1.960E-19

      iter #  13 total cpu time :  2160.4 secs   av.it.:  15.8
      thresh= 4.427E-11 alpha_mix =  0.700 |ddv_scf|^2 =  1.450E-20

      iter #  14 total cpu time :  2174.0 secs   av.it.:  16.2
      thresh= 1.204E-11 alpha_mix =  0.700 |ddv_scf|^2 =  3.598E-21

      iter #  15 total cpu time :  2187.6 secs   av.it.:  15.9
      thresh= 5.998E-12 alpha_mix =  0.700 |ddv_scf|^2 =  2.149E-22

     End of self-consistent calculation

     Convergence has been achieved 


     Representation #   7 mode #   7

     Self-consistent Calculation

      iter #   1 total cpu time :  2195.7 secs   av.it.:   7.5
      thresh= 1.000E-02 alpha_mix =  0.700 |ddv_scf|^2 =  1.063E-07

      iter #   2 total cpu time :  2209.1 secs   av.it.:  16.6
      thresh= 3.261E-05 alpha_mix =  0.700 |ddv_scf|^2 =  1.096E-07

      iter #   3 total cpu time :  2222.3 secs   av.it.:  15.5
      thresh= 3.311E-05 alpha_mix =  0.700 |ddv_scf|^2 =  2.223E-09

      iter #   4 total cpu time :  2239.2 secs   av.it.:  15.8
      thresh= 4.715E-06 alpha_mix =  0.700 |ddv_scf|^2 =  1.894E-10

      iter #   5 total cpu time :  2252.3 secs   av.it.:  15.5
      thresh= 1.376E-06 alpha_mix =  0.700 |ddv_scf|^2 =  3.674E-12

      iter #   6 total cpu time :  2266.1 secs   av.it.:  16.0
      thresh= 1.917E-07 alpha_mix =  0.700 |ddv_scf|^2 =  1.101E-13

      iter #   7 total cpu time :  2280.7 secs   av.it.:  16.3
      thresh= 3.319E-08 alpha_mix =  0.700 |ddv_scf|^2 =  2.010E-15

      iter #   8 total cpu time :  2295.3 secs   av.it.:  16.2
      thresh= 4.484E-09 alpha_mix =  0.700 |ddv_scf|^2 =  3.360E-16

      iter #   9 total cpu time :  2309.7 secs   av.it.:  16.5
      thresh= 1.833E-09 alpha_mix =  0.700 |ddv_scf|^2 =  7.077E-17

      iter #  10 total cpu time :  2324.1 secs   av.it.:  16.3
      thresh= 8.412E-10 alpha_mix =  0.700 |ddv_scf|^2 =  1.703E-17

      iter #  11 total cpu time :  2337.6 secs   av.it.:  16.0
      thresh= 4.127E-10 alpha_mix =  0.700 |ddv_scf|^2 =  2.234E-18

      iter #  12 total cpu time :  2350.7 secs   av.it.:  16.0
      thresh= 1.495E-10 alpha_mix =  0.700 |ddv_scf|^2 =  2.517E-19

      iter #  13 total cpu time :  2365.4 secs   av.it.:  16.0
      thresh= 5.017E-11 alpha_mix =  0.700 |ddv_scf|^2 =  1.959E-20

      iter #  14 total cpu time :  2378.6 secs   av.it.:  16.0
      thresh= 1.400E-11 alpha_mix =  0.700 |ddv_scf|^2 =  2.526E-21

      iter #  15 total cpu time :  2392.6 secs   av.it.:  15.9
      thresh= 5.026E-12 alpha_mix =  0.700 |ddv_scf|^2 =  1.375E-22

     End of self-consistent calculation

     Convergence has been achieved 


     Representation #   8 mode #   8

     Self-consistent Calculation

      iter #   1 total cpu time :  2401.4 secs   av.it.:   8.0
      thresh= 1.000E-02 alpha_mix =  0.700 |ddv_scf|^2 =  1.681E-07

      iter #   2 total cpu time :  2415.1 secs   av.it.:  16.3
      thresh= 4.099E-05 alpha_mix =  0.700 |ddv_scf|^2 =  1.107E-07

      iter #   3 total cpu time :  2431.8 secs   av.it.:  15.8
      thresh= 3.327E-05 alpha_mix =  0.700 |ddv_scf|^2 =  1.201E-08

      iter #   4 total cpu time :  2444.7 secs   av.it.:  15.6
      thresh= 1.096E-05 alpha_mix =  0.700 |ddv_scf|^2 =  3.589E-10

      iter #   5 total cpu time :  2457.5 secs   av.it.:  15.7
      thresh= 1.894E-06 alpha_mix =  0.700 |ddv_scf|^2 =  3.867E-11

      iter #   6 total cpu time :  2470.1 secs   av.it.:  15.4
      thresh= 6.218E-07 alpha_mix =  0.700 |ddv_scf|^2 =  7.329E-14

      iter #   7 total cpu time :  2483.7 secs   av.it.:  15.5
      thresh= 2.707E-08 alpha_mix =  0.700 |ddv_scf|^2 =  7.719E-15

      iter #   8 total cpu time :  2497.7 secs   av.it.:  16.0
      thresh= 8.786E-09 alpha_mix =  0.700 |ddv_scf|^2 =  8.414E-16

      iter #   9 total cpu time :  2511.9 secs   av.it.:  16.1
      thresh= 2.901E-09 alpha_mix =  0.700 |ddv_scf|^2 =  2.513E-18

      iter #  10 total cpu time :  2525.8 secs   av.it.:  16.3
      thresh= 1.585E-10 alpha_mix =  0.700 |ddv_scf|^2 =  5.076E-19

      iter #  11 total cpu time :  2539.1 secs   av.it.:  16.2
      thresh= 7.125E-11 alpha_mix =  0.700 |ddv_scf|^2 =  2.250E-19

      iter #  12 total cpu time :  2552.9 secs   av.it.:  16.2
      thresh= 4.744E-11 alpha_mix =  0.700 |ddv_scf|^2 =  3.307E-20

      iter #  13 total cpu time :  2566.6 secs   av.it.:  16.1
      thresh= 1.818E-11 alpha_mix =  0.700 |ddv_scf|^2 =  4.666E-22

     End of self-consistent calculation

     Convergence has been achieved 


     Representation #   9 mode #   9

     Self-consistent Calculation

      iter #   1 total cpu time :  2574.7 secs   av.it.:   8.1
      thresh= 1.000E-02 alpha_mix =  0.700 |ddv_scf|^2 =  1.968E-07

      iter #   2 total cpu time :  2588.8 secs   av.it.:  16.4
      thresh= 4.436E-05 alpha_mix =  0.700 |ddv_scf|^2 =  1.209E-07

      iter #   3 total cpu time :  2603.7 secs   av.it.:  15.6
      thresh= 3.477E-05 alpha_mix =  0.700 |ddv_scf|^2 =  5.646E-09

      iter #   4 total cpu time :  2619.8 secs   av.it.:  15.9
      thresh= 7.514E-06 alpha_mix =  0.700 |ddv_scf|^2 =  6.028E-10

      iter #   5 total cpu time :  2632.8 secs   av.it.:  15.9
      thresh= 2.455E-06 alpha_mix =  0.700 |ddv_scf|^2 =  7.655E-11

      iter #   6 total cpu time :  2646.3 secs   av.it.:  15.7
      thresh= 8.749E-07 alpha_mix =  0.700 |ddv_scf|^2 =  4.259E-14

      iter #   7 total cpu time :  2660.1 secs   av.it.:  16.1
      thresh= 2.064E-08 alpha_mix =  0.700 |ddv_scf|^2 =  3.035E-15

      iter #   8 total cpu time :  2674.4 secs   av.it.:  16.0
      thresh= 5.509E-09 alpha_mix =  0.700 |ddv_scf|^2 =  2.797E-16

      iter #   9 total cpu time :  2688.1 secs   av.it.:  16.1
      thresh= 1.673E-09 alpha_mix =  0.700 |ddv_scf|^2 =  1.756E-17

      iter #  10 total cpu time :  2701.7 secs   av.it.:  16.2
      thresh= 4.190E-10 alpha_mix =  0.700 |ddv_scf|^2 =  2.392E-18

      iter #  11 total cpu time :  2715.4 secs   av.it.:  16.0
      thresh= 1.547E-10 alpha_mix =  0.700 |ddv_scf|^2 =  3.121E-19

      iter #  12 total cpu time :  2729.3 secs   av.it.:  16.3
      thresh= 5.587E-11 alpha_mix =  0.700 |ddv_scf|^2 =  1.082E-19

      iter #  13 total cpu time :  2745.1 secs   av.it.:  15.9
      thresh= 3.289E-11 alpha_mix =  0.700 |ddv_scf|^2 =  1.118E-20

      iter #  14 total cpu time :  2758.3 secs   av.it.:  16.1
      thresh= 1.057E-11 alpha_mix =  0.700 |ddv_scf|^2 =  1.232E-21

      iter #  15 total cpu time :  2783.4 secs   av.it.:  16.3
      thresh= 3.510E-12 alpha_mix =  0.700 |ddv_scf|^2 =  1.934E-22

     End of self-consistent calculation

     Convergence has been achieved 
 
     Number of q in the star =    6
     List of q in the star:
          1   0.083333333   0.529237747   0.000000000
          2  -0.500000000  -0.192450090   0.000000000
          3   0.416666667  -0.336787657   0.000000000
          4  -0.083333333   0.529237747   0.000000000
          5  -0.416666667  -0.336787657   0.000000000
          6   0.500000000  -0.192450090   0.000000000
     In addition there is the -q list: 
          1  -0.083333333  -0.529237747   0.000000000
          2   0.500000000   0.192450090   0.000000000
          3  -0.416666667   0.336787657   0.000000000
          4   0.083333333  -0.529237747   0.000000000
          5   0.416666667   0.336787657   0.000000000
          6  -0.500000000   0.192450090   0.000000000

     Diagonalizing the dynamical matrix

     q = (    0.083333333   0.529237747   0.000000000 ) 

 **************************************************************************
     freq (    1) =      -2.884387 [THz] =     -96.212800 [cm-1]
     freq (    2) =       2.441929 [THz] =      81.453991 [cm-1]
     freq (    3) =       3.334654 [THz] =     111.232089 [cm-1]
     freq (    4) =       6.995804 [THz] =     233.354918 [cm-1]
     freq (    5) =       8.364207 [THz] =     278.999899 [cm-1]
     freq (    6) =       9.253492 [THz] =     308.663277 [cm-1]
     freq (    7) =       9.519327 [THz] =     317.530565 [cm-1]
     freq (    8) =       9.792708 [THz] =     326.649566 [cm-1]
     freq (    9) =      11.428122 [THz] =     381.201131 [cm-1]
 **************************************************************************

     Mode symmetry, C_s (m)     point group:

     freq (   1-   1) =        -96.2  [cm-1]   --> A'                 
     freq (   2-   2) =         81.5  [cm-1]   --> A''                
     freq (   3-   3) =        111.2  [cm-1]   --> A'                 
     freq (   4-   4) =        233.4  [cm-1]   --> A'                 
     freq (   5-   5) =        279.0  [cm-1]   --> A''                
     freq (   6-   6) =        308.7  [cm-1]   --> A''                
     freq (   7-   7) =        317.5  [cm-1]   --> A'                 
     freq (   8-   8) =        326.6  [cm-1]   --> A''                
     freq (   9-   9) =        381.2  [cm-1]   --> A'                 

     Calculation of q =    0.1666667   0.2886751   0.0000000
 
     Parallelization info
     --------------------
     sticks:   dense  smooth     PW     G-vecs:    dense   smooth      PW
     Min          60      31     10                 7329     2593     474
     Max          62      32     11                 7342     2605     490
     Sum        1099     559    187               132031    46753    8599
 
     Using Slab Decomposition
 

     Title: 
     TaS2                                                                       


     bravais-lattice index     =            4
     lattice parameter (alat)  =       6.3117  a.u.
     unit-cell volume          =     977.9382 (a.u.)^3
     number of atoms/cell      =            3
     number of atomic types    =            2
     number of electrons       =        17.00
     number of Kohn-Sham states=           13
     kinetic-energy cutoff     =      50.0000  Ry
     charge density cutoff     =     400.0000  Ry
     Exchange-correlation= PBE
                           (   1   4   3   4   0   0   0)

     celldm(1)=   6.311685  celldm(2)=   0.000000  celldm(3)=   4.491018
     celldm(4)=   0.000000  celldm(5)=   0.000000  celldm(6)=   0.000000

     crystal axes: (cart. coord. in units of alat)
               a(1) = (   1.000000   0.000000   0.000000 )  
               a(2) = (  -0.500000   0.866025   0.000000 )  
               a(3) = (   0.000000   0.000000   4.491018 )  

     reciprocal axes: (cart. coord. in units 2 pi/alat)
               b(1) = (  1.000000  0.577350  0.000000 )  
               b(2) = (  0.000000  1.154701  0.000000 )  
               b(3) = (  0.000000  0.000000  0.222667 )  


     PseudoPot. # 1 for Ta read from file:
     /fastscratch/tsievers/TaS2_24_ph_benchmark_images//pseudos/Ta.pbe-hgh.UPF
     MD5 check sum: 129c51a9a4223465c43ca8d238d17e53
     Pseudo is Norm-conserving, Zval =  5.0
     Generated in analytical, separable form
     Using radial grid of 1273 points,  6 beta functions with: 
                l(1) =   0
                l(2) =   0
                l(3) =   1
                l(4) =   1
                l(5) =   2
                l(6) =   2

     PseudoPot. # 2 for S  read from file:
     /fastscratch/tsievers/TaS2_24_ph_benchmark_images//pseudos/S.pbe-hgh.UPF
     MD5 check sum: 3a21e384b95a7cc84d045d3bcc0c4ba8
     Pseudo is Norm-conserving, Zval =  6.0
     Generated in analytical, separable form
     Using radial grid of 1151 points,  3 beta functions with: 
                l(1) =   0
                l(2) =   0
                l(3) =   1

     atomic species   valence    mass     pseudopotential
        Ta             5.00   180.95000     Ta( 1.00)
        S              6.00    32.06000     S ( 1.00)

     12 Sym. Ops. (no inversion) found



   Cartesian axes

     site n.     atom                  positions (alat units)
         1           S   tau(   1) = (  -0.0000000   0.5773503   0.4679048  )
         2           Ta  tau(   2) = (   0.0000000   0.0000000   0.0000000  )
         3           S   tau(   3) = (  -0.0000000   0.5773503  -0.4679048  )

     number of k points=  1152  Marzari-Vanderbilt smearing, width (Ry)=  0.0060

     Number of k-points >= 100: set verbosity='high' to print them.

     Dense  grid:   132031 G-vectors     FFT dimensions: (  45,  45, 192)

     Smooth grid:    46753 G-vectors     FFT dimensions: (  30,  30, 128)

     Estimated max dynamical RAM per process >       6.85 MB

     Estimated total dynamical RAM >     369.95 MB
 ----2D----2D----2D----2D----2D----2D----2D----2D----2D----2D----2D----2D
  The code is running with the 2D cutoff
  Please refer to:
  Sohier, T., Calandra, M., & Mauri, F. (2017), 
  Density functional perturbation theory for gated two-dimensional heterostructu
 res:
  Theoretical developments and application to flexural phonons in graphene.
  Physical Review B, 96(7), 75448. https://doi.org/10.1103/PhysRevB.96.075448
 ----2D----2D----2D----2D----2D----2D----2D----2D----2D----2D----2D----2D

     The potential is recalculated from file :
     /fastscratch/tsievers/QE_TMP_DIR/_ph1/TaS2_24_ph_bench_nimages_2_n_procs_108_0.q_13/TaS2_24_ph_bench_nimages_2_n_procs_108_0.save/charge-density

     Starting wfcs are   27 atomic wfcs

     Band Structure Calculation
     Davidson diagonalization with overlap

     ethr =  5.88E-11,  avg # of iterations = 20.5

     total cpu time spent up to now is      103.8 secs

     End of band structure calculation

     Number of k-points >= 100: set verbosity='high' to print the bands.

     the Fermi energy is    -5.8804 ev

     Writing config to output data dir /fastscratch/tsievers/QE_TMP_DIR/_ph1/TaS2_24_ph_bench_nimages_2_n_procs_108_0.q_13/TaS2_24_ph_bench_nimages_2_n_procs_108_0.save/

     TaS2                                                                       

     bravais-lattice index     =            4
     lattice parameter (alat)  =       6.3117  a.u.
     unit-cell volume          =     977.9382 (a.u.)^3
     number of atoms/cell      =            3
     number of atomic types    =            2
     kinetic-energy cut-off    =      50.0000  Ry
     charge density cut-off    =     400.0000  Ry
     convergence threshold     =      1.0E-21
     beta                      =       0.7000
     number of iterations used =            4
     Exchange-correlation= PBE
                           (   1   4   3   4   0   0   0)


     celldm(1)=    6.31169  celldm(2)=    0.00000  celldm(3)=    4.49102
     celldm(4)=    0.00000  celldm(5)=    0.00000  celldm(6)=    0.00000

     crystal axes: (cart. coord. in units of alat)
               a(1) = (  1.0000  0.0000  0.0000 )  
               a(2) = ( -0.5000  0.8660  0.0000 )  
               a(3) = (  0.0000  0.0000  4.4910 )  

     reciprocal axes: (cart. coord. in units 2 pi/alat)
               b(1) = (  1.0000  0.5774  0.0000 )  
               b(2) = (  0.0000  1.1547  0.0000 )  
               b(3) = (  0.0000  0.0000  0.2227 )  


     Atoms inside the unit cell: 

     Cartesian axes

     site n.  atom      mass           positions (alat units)
        1     S   32.0600   tau(    1) = (   -0.00000    0.57735    0.46790  )
        2     Ta 180.9500   tau(    2) = (    0.00000    0.00000    0.00000  )
        3     S   32.0600   tau(    3) = (   -0.00000    0.57735   -0.46790  )

     Computing dynamical matrix for 
                    q = (   0.1666667   0.2886751   0.0000000 )
 
      2 Sym.Ops. (no q -> -q+G )


     G cutoff =  403.6370  (   7330 G-vectors)     FFT grid: ( 45, 45,192)
     G cutoff =  201.8185  (   2599 G-vectors)  smooth grid: ( 30, 30,128)

     number of k points=  1152  Marzari-Vanderbilt smearing, width (Ry)=  0.0060

     PseudoPot. # 1 for Ta read from file:
     /fastscratch/tsievers/TaS2_24_ph_benchmark_images//pseudos/Ta.pbe-hgh.UPF
     MD5 check sum: 129c51a9a4223465c43ca8d238d17e53
     Pseudo is Norm-conserving, Zval =  5.0
     Generated in analytical, separable form
     Using radial grid of 1273 points,  6 beta functions with: 
                l(1) =   0
                l(2) =   0
                l(3) =   1
                l(4) =   1
                l(5) =   2
                l(6) =   2

     PseudoPot. # 2 for S  read from file:
     /fastscratch/tsievers/TaS2_24_ph_benchmark_images//pseudos/S.pbe-hgh.UPF
     MD5 check sum: 3a21e384b95a7cc84d045d3bcc0c4ba8
     Pseudo is Norm-conserving, Zval =  6.0
     Generated in analytical, separable form
     Using radial grid of 1151 points,  3 beta functions with: 
                l(1) =   0
                l(2) =   0
                l(3) =   1

     Mode symmetry, C_s (m)     point group:


     Atomic displacements:
     There are    9 irreducible representations

     Representation     1      1 modes -  To be done

     Representation     2      1 modes -  To be done

     Representation     3      1 modes -  To be done

     Representation     4      1 modes -  To be done

     Representation     5      1 modes -  To be done

     Representation     6      1 modes -  To be done

     Representation     7      1 modes -  To be done

     Representation     8      1 modes -  To be done

     Representation     9      1 modes -  To be done



     Alpha used in Ewald sum =   2.8000
     PHONON       :  44m13.85s CPU  47m16.88s WALL



     Representation #   1 mode #   1

     Self-consistent Calculation

      iter #   1 total cpu time :  2845.1 secs   av.it.:   8.9
      thresh= 1.000E-02 alpha_mix =  0.700 |ddv_scf|^2 =  3.237E-05

      iter #   2 total cpu time :  2861.2 secs   av.it.:  16.4
      thresh= 5.689E-04 alpha_mix =  0.700 |ddv_scf|^2 =  2.815E-03

      iter #   3 total cpu time :  2879.4 secs   av.it.:  12.7
      thresh= 5.306E-03 alpha_mix =  0.700 |ddv_scf|^2 =  8.730E-07

      iter #   4 total cpu time :  2892.5 secs   av.it.:  15.4
      thresh= 9.344E-05 alpha_mix =  0.700 |ddv_scf|^2 =  2.961E-07

      iter #   5 total cpu time :  2908.3 secs   av.it.:  14.7
      thresh= 5.441E-05 alpha_mix =  0.700 |ddv_scf|^2 =  1.634E-09

      iter #   6 total cpu time :  2921.2 secs   av.it.:  16.3
      thresh= 4.043E-06 alpha_mix =  0.700 |ddv_scf|^2 =  1.006E-10

      iter #   7 total cpu time :  2934.8 secs   av.it.:  16.3
      thresh= 1.003E-06 alpha_mix =  0.700 |ddv_scf|^2 =  2.439E-09

      iter #   8 total cpu time :  2950.4 secs   av.it.:  13.4
      thresh= 4.938E-06 alpha_mix =  0.700 |ddv_scf|^2 =  1.048E-10

      iter #   9 total cpu time :  2962.7 secs   av.it.:  14.5
      thresh= 1.024E-06 alpha_mix =  0.700 |ddv_scf|^2 =  2.000E-11

      iter #  10 total cpu time :  2976.6 secs   av.it.:  14.4
      thresh= 4.472E-07 alpha_mix =  0.700 |ddv_scf|^2 =  4.071E-13

      iter #  11 total cpu time :  2990.2 secs   av.it.:  16.0
      thresh= 6.380E-08 alpha_mix =  0.700 |ddv_scf|^2 =  3.193E-13

      iter #  12 total cpu time :  3004.7 secs   av.it.:  15.7
      thresh= 5.650E-08 alpha_mix =  0.700 |ddv_scf|^2 =  8.536E-13

      iter #  13 total cpu time :  3017.4 secs   av.it.:  14.1
      thresh= 9.239E-08 alpha_mix =  0.700 |ddv_scf|^2 =  1.171E-14

      iter #  14 total cpu time :  3031.1 secs   av.it.:  15.0
      thresh= 1.082E-08 alpha_mix =  0.700 |ddv_scf|^2 =  9.399E-15

      iter #  15 total cpu time :  3045.1 secs   av.it.:  14.7
      thresh= 9.695E-09 alpha_mix =  0.700 |ddv_scf|^2 =  5.682E-14

      iter #  16 total cpu time :  3056.6 secs   av.it.:  13.3
      thresh= 2.384E-08 alpha_mix =  0.700 |ddv_scf|^2 =  4.196E-16

      iter #  17 total cpu time :  3071.0 secs   av.it.:  15.3
      thresh= 2.048E-09 alpha_mix =  0.700 |ddv_scf|^2 =  2.155E-16

      iter #  18 total cpu time :  3083.0 secs   av.it.:  14.7
      thresh= 1.468E-09 alpha_mix =  0.700 |ddv_scf|^2 =  4.867E-18

      iter #  19 total cpu time :  3096.1 secs   av.it.:  15.5
      thresh= 2.206E-10 alpha_mix =  0.700 |ddv_scf|^2 =  6.074E-19

      iter #  20 total cpu time :  3109.4 secs   av.it.:  15.0
      thresh= 7.793E-11 alpha_mix =  0.700 |ddv_scf|^2 =  1.771E-20

      iter #  21 total cpu time :  3123.3 secs   av.it.:  16.3
      thresh= 1.331E-11 alpha_mix =  0.700 |ddv_scf|^2 =  1.689E-19

      iter #  22 total cpu time :  3137.7 secs   av.it.:  13.8
      thresh= 4.110E-11 alpha_mix =  0.700 |ddv_scf|^2 =  1.639E-21

      iter #  23 total cpu time :  3151.3 secs   av.it.:  16.1
      thresh= 4.049E-12 alpha_mix =  0.700 |ddv_scf|^2 =  1.311E-20

      iter #  24 total cpu time :  3163.5 secs   av.it.:  13.8
      thresh= 1.145E-11 alpha_mix =  0.700 |ddv_scf|^2 =  3.380E-22

     End of self-consistent calculation

     Convergence has been achieved 


     Representation #   2 mode #   2

     Self-consistent Calculation

      iter #   1 total cpu time :  3171.8 secs   av.it.:   8.0
      thresh= 1.000E-02 alpha_mix =  0.700 |ddv_scf|^2 =  9.679E-06

      iter #   2 total cpu time :  3184.8 secs   av.it.:  16.4
      thresh= 3.111E-04 alpha_mix =  0.700 |ddv_scf|^2 =  8.515E-04

      iter #   3 total cpu time :  3200.3 secs   av.it.:  12.7
      thresh= 2.918E-03 alpha_mix =  0.700 |ddv_scf|^2 =  1.401E-07

      iter #   4 total cpu time :  3220.3 secs   av.it.:  15.6
      thresh= 3.743E-05 alpha_mix =  0.700 |ddv_scf|^2 =  8.442E-08

      iter #   5 total cpu time :  3233.3 secs   av.it.:  14.6
      thresh= 2.906E-05 alpha_mix =  0.700 |ddv_scf|^2 =  5.658E-09

      iter #   6 total cpu time :  3245.0 secs   av.it.:  14.5
      thresh= 7.522E-06 alpha_mix =  0.700 |ddv_scf|^2 =  7.922E-12

      iter #   7 total cpu time :  3260.1 secs   av.it.:  16.3
      thresh= 2.815E-07 alpha_mix =  0.700 |ddv_scf|^2 =  2.626E-11

      iter #   8 total cpu time :  3273.1 secs   av.it.:  14.8
      thresh= 5.125E-07 alpha_mix =  0.700 |ddv_scf|^2 =  6.913E-11

      iter #   9 total cpu time :  3287.2 secs   av.it.:  14.3
      thresh= 8.315E-07 alpha_mix =  0.700 |ddv_scf|^2 =  3.041E-12

      iter #  10 total cpu time :  3300.2 secs   av.it.:  15.2
      thresh= 1.744E-07 alpha_mix =  0.700 |ddv_scf|^2 =  2.430E-14

      iter #  11 total cpu time :  3314.6 secs   av.it.:  16.1
      thresh= 1.559E-08 alpha_mix =  0.700 |ddv_scf|^2 =  1.836E-14

      iter #  12 total cpu time :  3327.8 secs   av.it.:  15.4
      thresh= 1.355E-08 alpha_mix =  0.700 |ddv_scf|^2 =  2.736E-15

      iter #  13 total cpu time :  3341.8 secs   av.it.:  15.0
      thresh= 5.231E-09 alpha_mix =  0.700 |ddv_scf|^2 =  1.259E-16

      iter #  14 total cpu time :  3356.0 secs   av.it.:  16.3
      thresh= 1.122E-09 alpha_mix =  0.700 |ddv_scf|^2 =  3.520E-16

      iter #  15 total cpu time :  3368.3 secs   av.it.:  14.4
      thresh= 1.876E-09 alpha_mix =  0.700 |ddv_scf|^2 =  2.650E-17

      iter #  16 total cpu time :  3381.7 secs   av.it.:  13.7
      thresh= 5.148E-10 alpha_mix =  0.700 |ddv_scf|^2 =  2.312E-18

      iter #  17 total cpu time :  3394.5 secs   av.it.:  14.9
      thresh= 1.520E-10 alpha_mix =  0.700 |ddv_scf|^2 =  3.496E-18

      iter #  18 total cpu time :  3407.8 secs   av.it.:  14.2
      thresh= 1.870E-10 alpha_mix =  0.700 |ddv_scf|^2 =  3.166E-19

      iter #  19 total cpu time :  3420.1 secs   av.it.:  15.1
      thresh= 5.627E-11 alpha_mix =  0.700 |ddv_scf|^2 =  3.205E-20

      iter #  20 total cpu time :  3434.7 secs   av.it.:  16.1
      thresh= 1.790E-11 alpha_mix =  0.700 |ddv_scf|^2 =  7.425E-20

      iter #  21 total cpu time :  3448.5 secs   av.it.:  14.4
      thresh= 2.725E-11 alpha_mix =  0.700 |ddv_scf|^2 =  5.392E-21

      iter #  22 total cpu time :  3461.1 secs   av.it.:  15.0
      thresh= 7.343E-12 alpha_mix =  0.700 |ddv_scf|^2 =  1.737E-21

      iter #  23 total cpu time :  3475.0 secs   av.it.:  15.7
      thresh= 4.168E-12 alpha_mix =  0.700 |ddv_scf|^2 =  1.749E-22

     End of self-consistent calculation

     Convergence has been achieved 


     Representation #   3 mode #   3

     Self-consistent Calculation

      iter #   1 total cpu time :  3484.5 secs   av.it.:   8.8
      thresh= 1.000E-02 alpha_mix =  0.700 |ddv_scf|^2 =  1.110E-05

      iter #   2 total cpu time :  3499.9 secs   av.it.:  16.7
      thresh= 3.331E-04 alpha_mix =  0.700 |ddv_scf|^2 =  1.086E-03

      iter #   3 total cpu time :  3513.5 secs   av.it.:  12.7
      thresh= 3.295E-03 alpha_mix =  0.700 |ddv_scf|^2 =  2.470E-06

      iter #   4 total cpu time :  3526.5 secs   av.it.:  15.1
      thresh= 1.572E-04 alpha_mix =  0.700 |ddv_scf|^2 =  3.566E-07

      iter #   5 total cpu time :  3539.3 secs   av.it.:  14.6
      thresh= 5.972E-05 alpha_mix =  0.700 |ddv_scf|^2 =  3.241E-08

      iter #   6 total cpu time :  3551.3 secs   av.it.:  14.7
      thresh= 1.800E-05 alpha_mix =  0.700 |ddv_scf|^2 =  4.797E-11

      iter #   7 total cpu time :  3567.3 secs   av.it.:  16.3
      thresh= 6.926E-07 alpha_mix =  0.700 |ddv_scf|^2 =  1.231E-09

      iter #   8 total cpu time :  3578.9 secs   av.it.:  13.3
      thresh= 3.509E-06 alpha_mix =  0.700 |ddv_scf|^2 =  2.136E-11

      iter #   9 total cpu time :  3594.1 secs   av.it.:  16.1
      thresh= 4.622E-07 alpha_mix =  0.700 |ddv_scf|^2 =  9.664E-12

      iter #  10 total cpu time :  3607.2 secs   av.it.:  15.2
      thresh= 3.109E-07 alpha_mix =  0.700 |ddv_scf|^2 =  3.037E-12

      iter #  11 total cpu time :  3621.7 secs   av.it.:  14.1
      thresh= 1.743E-07 alpha_mix =  0.700 |ddv_scf|^2 =  9.648E-14

      iter #  12 total cpu time :  3634.5 secs   av.it.:  15.2
      thresh= 3.106E-08 alpha_mix =  0.700 |ddv_scf|^2 =  2.428E-14

      iter #  13 total cpu time :  3648.4 secs   av.it.:  14.4
      thresh= 1.558E-08 alpha_mix =  0.700 |ddv_scf|^2 =  1.122E-15

      iter #  14 total cpu time :  3662.0 secs   av.it.:  15.4
      thresh= 3.350E-09 alpha_mix =  0.700 |ddv_scf|^2 =  8.750E-16

      iter #  15 total cpu time :  3673.8 secs   av.it.:  14.5
      thresh= 2.958E-09 alpha_mix =  0.700 |ddv_scf|^2 =  1.199E-15

      iter #  16 total cpu time :  3687.4 secs   av.it.:  14.1
      thresh= 3.462E-09 alpha_mix =  0.700 |ddv_scf|^2 =  2.165E-16

      iter #  17 total cpu time :  3701.1 secs   av.it.:  15.0
      thresh= 1.471E-09 alpha_mix =  0.700 |ddv_scf|^2 =  6.187E-17

      iter #  18 total cpu time :  3715.2 secs   av.it.:  14.9
      thresh= 7.865E-10 alpha_mix =  0.700 |ddv_scf|^2 =  8.878E-18

      iter #  19 total cpu time :  3727.2 secs   av.it.:  14.8
      thresh= 2.980E-10 alpha_mix =  0.700 |ddv_scf|^2 =  2.004E-18

      iter #  20 total cpu time :  3740.8 secs   av.it.:  14.4
      thresh= 1.416E-10 alpha_mix =  0.700 |ddv_scf|^2 =  2.600E-19

      iter #  21 total cpu time :  3755.9 secs   av.it.:  15.1
      thresh= 5.099E-11 alpha_mix =  0.700 |ddv_scf|^2 =  8.158E-20

      iter #  22 total cpu time :  3768.1 secs   av.it.:  15.2
      thresh= 2.856E-11 alpha_mix =  0.700 |ddv_scf|^2 =  4.602E-21

      iter #  23 total cpu time :  3782.3 secs   av.it.:  16.0
      thresh= 6.784E-12 alpha_mix =  0.700 |ddv_scf|^2 =  1.270E-21

      iter #  24 total cpu time :  3794.2 secs   av.it.:  14.9
      thresh= 3.564E-12 alpha_mix =  0.700 |ddv_scf|^2 =  4.027E-23

     End of self-consistent calculation

     Convergence has been achieved 


     Representation #   4 mode #   4

     Self-consistent Calculation

      iter #   1 total cpu time :  3803.0 secs   av.it.:   8.3
      thresh= 1.000E-02 alpha_mix =  0.700 |ddv_scf|^2 =  1.748E-05

      iter #   2 total cpu time :  3817.2 secs   av.it.:  16.5
      thresh= 4.180E-04 alpha_mix =  0.700 |ddv_scf|^2 =  1.542E-03

      iter #   3 total cpu time :  3833.2 secs   av.it.:  12.8
      thresh= 3.927E-03 alpha_mix =  0.700 |ddv_scf|^2 =  2.173E-07

      iter #   4 total cpu time :  3846.6 secs   av.it.:  15.6
      thresh= 4.662E-05 alpha_mix =  0.700 |ddv_scf|^2 =  1.567E-07

      iter #   5 total cpu time :  3858.4 secs   av.it.:  14.4
      thresh= 3.958E-05 alpha_mix =  0.700 |ddv_scf|^2 =  6.747E-09

      iter #   6 total cpu time :  3873.1 secs   av.it.:  14.6
      thresh= 8.214E-06 alpha_mix =  0.700 |ddv_scf|^2 =  7.444E-12

      iter #   7 total cpu time :  3886.1 secs   av.it.:  16.3
      thresh= 2.728E-07 alpha_mix =  0.700 |ddv_scf|^2 =  1.677E-12

      iter #   8 total cpu time :  3901.5 secs   av.it.:  16.5
      thresh= 1.295E-07 alpha_mix =  0.700 |ddv_scf|^2 =  1.724E-11

      iter #   9 total cpu time :  3914.0 secs   av.it.:  13.9
      thresh= 4.152E-07 alpha_mix =  0.700 |ddv_scf|^2 =  2.149E-12

      iter #  10 total cpu time :  3926.2 secs   av.it.:  15.2
      thresh= 1.466E-07 alpha_mix =  0.700 |ddv_scf|^2 =  9.981E-15

      iter #  11 total cpu time :  3940.9 secs   av.it.:  16.1
      thresh= 9.991E-09 alpha_mix =  0.700 |ddv_scf|^2 =  3.164E-14

      iter #  12 total cpu time :  3952.8 secs   av.it.:  13.7
      thresh= 1.779E-08 alpha_mix =  0.700 |ddv_scf|^2 =  5.298E-15

      iter #  13 total cpu time :  3968.0 secs   av.it.:  15.3
      thresh= 7.279E-09 alpha_mix =  0.700 |ddv_scf|^2 =  2.243E-15

      iter #  14 total cpu time :  3980.8 secs   av.it.:  15.3
      thresh= 4.736E-09 alpha_mix =  0.700 |ddv_scf|^2 =  1.342E-15

      iter #  15 total cpu time :  3993.9 secs   av.it.:  14.8
      thresh= 3.663E-09 alpha_mix =  0.700 |ddv_scf|^2 =  1.631E-16

      iter #  16 total cpu time :  4009.2 secs   av.it.:  15.5
      thresh= 1.277E-09 alpha_mix =  0.700 |ddv_scf|^2 =  2.529E-16

      iter #  17 total cpu time :  4022.8 secs   av.it.:  14.1
      thresh= 1.590E-09 alpha_mix =  0.700 |ddv_scf|^2 =  9.255E-18

      iter #  18 total cpu time :  4037.2 secs   av.it.:  16.0
      thresh= 3.042E-10 alpha_mix =  0.700 |ddv_scf|^2 =  4.826E-18

      iter #  19 total cpu time :  4049.4 secs   av.it.:  14.7
      thresh= 2.197E-10 alpha_mix =  0.700 |ddv_scf|^2 =  4.474E-19

      iter #  20 total cpu time :  4064.5 secs   av.it.:  15.4
      thresh= 6.689E-11 alpha_mix =  0.700 |ddv_scf|^2 =  7.630E-19

      iter #  21 total cpu time :  4078.7 secs   av.it.:  15.4
      thresh= 8.735E-11 alpha_mix =  0.700 |ddv_scf|^2 =  4.083E-18

      iter #  22 total cpu time :  4092.2 secs   av.it.:  13.7
      thresh= 2.021E-10 alpha_mix =  0.700 |ddv_scf|^2 =  1.699E-20

      iter #  23 total cpu time :  4104.9 secs   av.it.:  16.0
      thresh= 1.303E-11 alpha_mix =  0.700 |ddv_scf|^2 =  1.962E-20

      iter #  24 total cpu time :  4119.2 secs   av.it.:  14.9
      thresh= 1.401E-11 alpha_mix =  0.700 |ddv_scf|^2 =  8.408E-20

      iter #  25 total cpu time :  4131.0 secs   av.it.:  13.5
      thresh= 2.900E-11 alpha_mix =  0.700 |ddv_scf|^2 =  6.856E-21

      iter #  26 total cpu time :  4142.9 secs   av.it.:  14.3
      thresh= 8.280E-12 alpha_mix =  0.700 |ddv_scf|^2 =  1.188E-22

     End of self-consistent calculation

     Convergence has been achieved 


     Representation #   5 mode #   5

     Self-consistent Calculation

      iter #   1 total cpu time :  4153.6 secs   av.it.:   8.9
      thresh= 1.000E-02 alpha_mix =  0.700 |ddv_scf|^2 =  3.155E-05

      iter #   2 total cpu time :  4167.0 secs   av.it.:  16.4
      thresh= 5.617E-04 alpha_mix =  0.700 |ddv_scf|^2 =  2.753E-03

      iter #   3 total cpu time :  4181.9 secs   av.it.:  12.7
      thresh= 5.247E-03 alpha_mix =  0.700 |ddv_scf|^2 =  7.189E-07

      iter #   4 total cpu time :  4197.0 secs   av.it.:  15.4
      thresh= 8.479E-05 alpha_mix =  0.700 |ddv_scf|^2 =  2.682E-07

      iter #   5 total cpu time :  4209.6 secs   av.it.:  14.7
      thresh= 5.179E-05 alpha_mix =  0.700 |ddv_scf|^2 =  3.197E-09

      iter #   6 total cpu time :  4223.2 secs   av.it.:  15.9
      thresh= 5.654E-06 alpha_mix =  0.700 |ddv_scf|^2 =  1.442E-10

      iter #   7 total cpu time :  4236.6 secs   av.it.:  15.9
      thresh= 1.201E-06 alpha_mix =  0.700 |ddv_scf|^2 =  1.311E-09

      iter #   8 total cpu time :  4249.4 secs   av.it.:  13.6
      thresh= 3.621E-06 alpha_mix =  0.700 |ddv_scf|^2 =  1.255E-10

      iter #   9 total cpu time :  4262.3 secs   av.it.:  14.4
      thresh= 1.120E-06 alpha_mix =  0.700 |ddv_scf|^2 =  1.222E-11

      iter #  10 total cpu time :  4275.2 secs   av.it.:  14.8
      thresh= 3.496E-07 alpha_mix =  0.700 |ddv_scf|^2 =  9.044E-13

      iter #  11 total cpu time :  4288.1 secs   av.it.:  15.3
      thresh= 9.510E-08 alpha_mix =  0.700 |ddv_scf|^2 =  1.721E-14

      iter #  12 total cpu time :  4302.7 secs   av.it.:  17.0
      thresh= 1.312E-08 alpha_mix =  0.700 |ddv_scf|^2 =  8.091E-14

      iter #  13 total cpu time :  4316.0 secs   av.it.:  14.6
      thresh= 2.844E-08 alpha_mix =  0.700 |ddv_scf|^2 =  1.122E-14

      iter #  14 total cpu time :  4328.7 secs   av.it.:  14.4
      thresh= 1.059E-08 alpha_mix =  0.700 |ddv_scf|^2 =  4.486E-15

      iter #  15 total cpu time :  4341.4 secs   av.it.:  14.3
      thresh= 6.698E-09 alpha_mix =  0.700 |ddv_scf|^2 =  4.676E-15

      iter #  16 total cpu time :  4353.9 secs   av.it.:  13.4
      thresh= 6.838E-09 alpha_mix =  0.700 |ddv_scf|^2 =  1.370E-16

      iter #  17 total cpu time :  4367.6 secs   av.it.:  15.4
      thresh= 1.171E-09 alpha_mix =  0.700 |ddv_scf|^2 =  1.043E-16

      iter #  18 total cpu time :  4381.5 secs   av.it.:  14.4
      thresh= 1.021E-09 alpha_mix =  0.700 |ddv_scf|^2 =  3.997E-17

      iter #  19 total cpu time :  4394.4 secs   av.it.:  14.9
      thresh= 6.322E-10 alpha_mix =  0.700 |ddv_scf|^2 =  3.578E-18

      iter #  20 total cpu time :  4407.9 secs   av.it.:  15.3
      thresh= 1.891E-10 alpha_mix =  0.700 |ddv_scf|^2 =  2.605E-19

      iter #  21 total cpu time :  4422.8 secs   av.it.:  16.2
      thresh= 5.104E-11 alpha_mix =  0.700 |ddv_scf|^2 =  1.592E-18

      iter #  22 total cpu time :  4435.3 secs   av.it.:  13.5
      thresh= 1.262E-10 alpha_mix =  0.700 |ddv_scf|^2 =  4.360E-20

      iter #  23 total cpu time :  4446.8 secs   av.it.:  14.0
      thresh= 2.088E-11 alpha_mix =  0.700 |ddv_scf|^2 =  1.552E-20

      iter #  24 total cpu time :  4461.1 secs   av.it.:  14.7
      thresh= 1.246E-11 alpha_mix =  0.700 |ddv_scf|^2 =  1.766E-21

      iter #  25 total cpu time :  4474.1 secs   av.it.:  15.0
      thresh= 4.203E-12 alpha_mix =  0.700 |ddv_scf|^2 =  2.524E-22

     End of self-consistent calculation

     Convergence has been achieved 


     Representation #   6 mode #   6

     Self-consistent Calculation

      iter #   1 total cpu time :  4484.1 secs   av.it.:   8.3
      thresh= 1.000E-02 alpha_mix =  0.700 |ddv_scf|^2 =  8.418E-07

      iter #   2 total cpu time :  4497.8 secs   av.it.:  16.2
      thresh= 9.175E-05 alpha_mix =  0.700 |ddv_scf|^2 =  2.652E-06

      iter #   3 total cpu time :  4513.1 secs   av.it.:  14.7
      thresh= 1.628E-04 alpha_mix =  0.700 |ddv_scf|^2 =  1.953E-08

      iter #   4 total cpu time :  4525.8 secs   av.it.:  15.7
      thresh= 1.397E-05 alpha_mix =  0.700 |ddv_scf|^2 =  3.537E-10

      iter #   5 total cpu time :  4538.8 secs   av.it.:  15.8
      thresh= 1.881E-06 alpha_mix =  0.700 |ddv_scf|^2 =  2.641E-11

      iter #   6 total cpu time :  4554.4 secs   av.it.:  16.0
      thresh= 5.139E-07 alpha_mix =  0.700 |ddv_scf|^2 =  9.702E-14

      iter #   7 total cpu time :  4567.1 secs   av.it.:  15.6
      thresh= 3.115E-08 alpha_mix =  0.700 |ddv_scf|^2 =  3.545E-15

      iter #   8 total cpu time :  4580.8 secs   av.it.:  16.0
      thresh= 5.954E-09 alpha_mix =  0.700 |ddv_scf|^2 =  2.888E-15

      iter #   9 total cpu time :  4594.9 secs   av.it.:  15.5
      thresh= 5.374E-09 alpha_mix =  0.700 |ddv_scf|^2 =  1.261E-15

      iter #  10 total cpu time :  4607.3 secs   av.it.:  15.1
      thresh= 3.552E-09 alpha_mix =  0.700 |ddv_scf|^2 =  1.131E-17

      iter #  11 total cpu time :  4622.1 secs   av.it.:  16.1
      thresh= 3.363E-10 alpha_mix =  0.700 |ddv_scf|^2 =  2.356E-18

      iter #  12 total cpu time :  4636.4 secs   av.it.:  15.9
      thresh= 1.535E-10 alpha_mix =  0.700 |ddv_scf|^2 =  5.968E-19

      iter #  13 total cpu time :  4651.2 secs   av.it.:  15.6
      thresh= 7.726E-11 alpha_mix =  0.700 |ddv_scf|^2 =  6.632E-20

      iter #  14 total cpu time :  4664.0 secs   av.it.:  15.6
      thresh= 2.575E-11 alpha_mix =  0.700 |ddv_scf|^2 =  4.241E-21

      iter #  15 total cpu time :  4678.2 secs   av.it.:  15.9
      thresh= 6.512E-12 alpha_mix =  0.700 |ddv_scf|^2 =  1.274E-21

      iter #  16 total cpu time :  4691.1 secs   av.it.:  15.1
      thresh= 3.570E-12 alpha_mix =  0.700 |ddv_scf|^2 =  1.233E-22

     End of self-consistent calculation

     Convergence has been achieved 


     Representation #   7 mode #   7

     Self-consistent Calculation

      iter #   1 total cpu time :  4698.8 secs   av.it.:   7.9
      thresh= 1.000E-02 alpha_mix =  0.700 |ddv_scf|^2 =  6.713E-07

      iter #   2 total cpu time :  4712.9 secs   av.it.:  16.3
      thresh= 8.193E-05 alpha_mix =  0.700 |ddv_scf|^2 =  2.566E-06

      iter #   3 total cpu time :  4725.4 secs   av.it.:  14.6
      thresh= 1.602E-04 alpha_mix =  0.700 |ddv_scf|^2 =  2.551E-09

      iter #   4 total cpu time :  4754.9 secs   av.it.:  16.0
      thresh= 5.051E-06 alpha_mix =  0.700 |ddv_scf|^2 =  9.258E-11

      iter #   5 total cpu time :  4767.4 secs   av.it.:  16.0
      thresh= 9.622E-07 alpha_mix =  0.700 |ddv_scf|^2 =  4.068E-12

      iter #   6 total cpu time :  4781.9 secs   av.it.:  16.3
      thresh= 2.017E-07 alpha_mix =  0.700 |ddv_scf|^2 =  6.266E-13

      iter #   7 total cpu time :  4794.1 secs   av.it.:  15.4
      thresh= 7.916E-08 alpha_mix =  0.700 |ddv_scf|^2 =  1.437E-15

      iter #   8 total cpu time :  4807.8 secs   av.it.:  15.9
      thresh= 3.791E-09 alpha_mix =  0.700 |ddv_scf|^2 =  5.056E-16

      iter #   9 total cpu time :  4822.9 secs   av.it.:  15.9
      thresh= 2.249E-09 alpha_mix =  0.700 |ddv_scf|^2 =  1.938E-17

      iter #  10 total cpu time :  4835.7 secs   av.it.:  16.5
      thresh= 4.402E-10 alpha_mix =  0.700 |ddv_scf|^2 =  1.325E-17

      iter #  11 total cpu time :  4849.7 secs   av.it.:  15.4
      thresh= 3.640E-10 alpha_mix =  0.700 |ddv_scf|^2 =  2.195E-18

      iter #  12 total cpu time :  4862.9 secs   av.it.:  15.4
      thresh= 1.482E-10 alpha_mix =  0.700 |ddv_scf|^2 =  1.417E-19

      iter #  13 total cpu time :  4879.2 secs   av.it.:  16.2
      thresh= 3.764E-11 alpha_mix =  0.700 |ddv_scf|^2 =  3.298E-20

      iter #  14 total cpu time :  4891.6 secs   av.it.:  15.8
      thresh= 1.816E-11 alpha_mix =  0.700 |ddv_scf|^2 =  1.079E-20

      iter #  15 total cpu time :  4904.6 secs   av.it.:  15.0
      thresh= 1.039E-11 alpha_mix =  0.700 |ddv_scf|^2 =  3.119E-22

     End of self-consistent calculation

     Convergence has been achieved 


     Representation #   8 mode #   8

     Self-consistent Calculation

      iter #   1 total cpu time :  4913.2 secs   av.it.:   8.1
      thresh= 1.000E-02 alpha_mix =  0.700 |ddv_scf|^2 =  7.666E-07

      iter #   2 total cpu time :  4925.8 secs   av.it.:  16.1
      thresh= 8.755E-05 alpha_mix =  0.700 |ddv_scf|^2 =  2.096E-06

      iter #   3 total cpu time :  4943.6 secs   av.it.:  14.7
      thresh= 1.448E-04 alpha_mix =  0.700 |ddv_scf|^2 =  3.494E-08

      iter #   4 total cpu time :  4955.6 secs   av.it.:  15.2
      thresh= 1.869E-05 alpha_mix =  0.700 |ddv_scf|^2 =  3.914E-10

      iter #   5 total cpu time :  4968.0 secs   av.it.:  14.8
      thresh= 1.979E-06 alpha_mix =  0.700 |ddv_scf|^2 =  3.418E-12

      iter #   6 total cpu time :  4982.1 secs   av.it.:  15.9
      thresh= 1.849E-07 alpha_mix =  0.700 |ddv_scf|^2 =  1.501E-13

      iter #   7 total cpu time :  4995.3 secs   av.it.:  16.2
      thresh= 3.874E-08 alpha_mix =  0.700 |ddv_scf|^2 =  2.056E-14

      iter #   8 total cpu time :  5018.9 secs   av.it.:  15.4
      thresh= 1.434E-08 alpha_mix =  0.700 |ddv_scf|^2 =  3.861E-16

      iter #   9 total cpu time :  5033.8 secs   av.it.:  16.3
      thresh= 1.965E-09 alpha_mix =  0.700 |ddv_scf|^2 =  1.440E-16

      iter #  10 total cpu time :  5047.8 secs   av.it.:  15.6
      thresh= 1.200E-09 alpha_mix =  0.700 |ddv_scf|^2 =  6.450E-17

      iter #  11 total cpu time :  5061.7 secs   av.it.:  14.9
      thresh= 8.031E-10 alpha_mix =  0.700 |ddv_scf|^2 =  4.394E-18

      iter #  12 total cpu time :  5075.5 secs   av.it.:  15.1
      thresh= 2.096E-10 alpha_mix =  0.700 |ddv_scf|^2 =  3.354E-19

      iter #  13 total cpu time :  5089.8 secs   av.it.:  15.9
      thresh= 5.791E-11 alpha_mix =  0.700 |ddv_scf|^2 =  4.275E-20

      iter #  14 total cpu time :  5103.5 secs   av.it.:  16.1
      thresh= 2.067E-11 alpha_mix =  0.700 |ddv_scf|^2 =  7.673E-21

      iter #  15 total cpu time :  5116.4 secs   av.it.:  16.0
      thresh= 8.759E-12 alpha_mix =  0.700 |ddv_scf|^2 =  3.320E-22

     End of self-consistent calculation

     Convergence has been achieved 


     Representation #   9 mode #   9

     Self-consistent Calculation

      iter #   1 total cpu time :  5127.4 secs   av.it.:   8.3
      thresh= 1.000E-02 alpha_mix =  0.700 |ddv_scf|^2 =  9.174E-07

      iter #   2 total cpu time :  5140.3 secs   av.it.:  16.2
      thresh= 9.578E-05 alpha_mix =  0.700 |ddv_scf|^2 =  2.898E-06

      iter #   3 total cpu time :  5159.5 secs   av.it.:  14.7
      thresh= 1.702E-04 alpha_mix =  0.700 |ddv_scf|^2 =  2.108E-08

      iter #   4 total cpu time :  5171.8 secs   av.it.:  15.8
      thresh= 1.452E-05 alpha_mix =  0.700 |ddv_scf|^2 =  3.742E-10

      iter #   5 total cpu time :  5185.1 secs   av.it.:  15.8
      thresh= 1.935E-06 alpha_mix =  0.700 |ddv_scf|^2 =  2.441E-11

      iter #   6 total cpu time :  5198.7 secs   av.it.:  16.0
      thresh= 4.941E-07 alpha_mix =  0.700 |ddv_scf|^2 =  1.332E-13

      iter #   7 total cpu time :  5212.3 secs   av.it.:  15.4
      thresh= 3.650E-08 alpha_mix =  0.700 |ddv_scf|^2 =  2.910E-15

      iter #   8 total cpu time :  5226.0 secs   av.it.:  15.9
      thresh= 5.395E-09 alpha_mix =  0.700 |ddv_scf|^2 =  2.048E-15

      iter #   9 total cpu time :  5239.7 secs   av.it.:  15.6
      thresh= 4.526E-09 alpha_mix =  0.700 |ddv_scf|^2 =  1.225E-15

      iter #  10 total cpu time :  5252.4 secs   av.it.:  15.0
      thresh= 3.499E-09 alpha_mix =  0.700 |ddv_scf|^2 =  1.300E-17

      iter #  11 total cpu time :  5265.2 secs   av.it.:  16.0
      thresh= 3.605E-10 alpha_mix =  0.700 |ddv_scf|^2 =  2.067E-18

      iter #  12 total cpu time :  5279.8 secs   av.it.:  15.8
      thresh= 1.438E-10 alpha_mix =  0.700 |ddv_scf|^2 =  4.691E-19

      iter #  13 total cpu time :  5293.4 secs   av.it.:  15.7
      thresh= 6.849E-11 alpha_mix =  0.700 |ddv_scf|^2 =  5.865E-20

      iter #  14 total cpu time :  5306.7 secs   av.it.:  15.4
      thresh= 2.422E-11 alpha_mix =  0.700 |ddv_scf|^2 =  2.728E-21

      iter #  15 total cpu time :  5319.7 secs   av.it.:  16.0
      thresh= 5.223E-12 alpha_mix =  0.700 |ddv_scf|^2 =  6.789E-22

     End of self-consistent calculation

     Convergence has been achieved 
 
     Number of q in the star =    6
     List of q in the star:
          1   0.166666667   0.288675135   0.000000000
          2  -0.333333333   0.000000000   0.000000000
          3   0.166666667  -0.288675135   0.000000000
          4  -0.166666667   0.288675135   0.000000000
          5  -0.166666667  -0.288675135   0.000000000
          6   0.333333333   0.000000000   0.000000000

     Diagonalizing the dynamical matrix

     q = (    0.166666667   0.288675135   0.000000000 ) 

 **************************************************************************
     freq (    1) =       0.988908 [THz] =      32.986428 [cm-1]
     freq (    2) =       1.650209 [THz] =      55.045059 [cm-1]
     freq (    3) =       2.650230 [THz] =      88.402146 [cm-1]
     freq (    4) =       7.453399 [THz] =     248.618618 [cm-1]
     freq (    5) =       8.043363 [THz] =     268.297709 [cm-1]
     freq (    6) =       8.641369 [THz] =     288.245027 [cm-1]
     freq (    7) =       8.649893 [THz] =     288.529388 [cm-1]
     freq (    8) =      10.038437 [THz] =     334.846223 [cm-1]
     freq (    9) =      11.491142 [THz] =     383.303222 [cm-1]
 **************************************************************************

     Mode symmetry, C_s (m)     point group:

     freq (   1-   1) =         33.0  [cm-1]   --> A'                 
     freq (   2-   2) =         55.0  [cm-1]   --> A''                
     freq (   3-   3) =         88.4  [cm-1]   --> A'                 
     freq (   4-   4) =        248.6  [cm-1]   --> A'                 
     freq (   5-   5) =        268.3  [cm-1]   --> A''                
     freq (   6-   6) =        288.2  [cm-1]   --> A''                
     freq (   7-   7) =        288.5  [cm-1]   --> A'                 
     freq (   8-   8) =        334.8  [cm-1]   --> A''                
     freq (   9-   9) =        383.3  [cm-1]   --> A'                 

     Calculation of q =    0.1666667   0.3849002   0.0000000
 
     Parallelization info
     --------------------
     sticks:   dense  smooth     PW     G-vecs:    dense   smooth      PW
     Min          60      31     10                 7329     2593     492
     Max          62      32     11                 7342     2605     504
     Sum        1099     559    187               132031    46753    8959
 
     Using Slab Decomposition
 

     Title: 
     TaS2                                                                       


     bravais-lattice index     =            4
     lattice parameter (alat)  =       6.3117  a.u.
     unit-cell volume          =     977.9382 (a.u.)^3
     number of atoms/cell      =            3
     number of atomic types    =            2
     number of electrons       =        17.00
     number of Kohn-Sham states=           13
     kinetic-energy cutoff     =      50.0000  Ry
     charge density cutoff     =     400.0000  Ry
     Exchange-correlation= PBE
                           (   1   4   3   4   0   0   0)

     celldm(1)=   6.311685  celldm(2)=   0.000000  celldm(3)=   4.491018
     celldm(4)=   0.000000  celldm(5)=   0.000000  celldm(6)=   0.000000

     crystal axes: (cart. coord. in units of alat)
               a(1) = (   1.000000   0.000000   0.000000 )  
               a(2) = (  -0.500000   0.866025   0.000000 )  
               a(3) = (   0.000000   0.000000   4.491018 )  

     reciprocal axes: (cart. coord. in units 2 pi/alat)
               b(1) = (  1.000000  0.577350  0.000000 )  
               b(2) = (  0.000000  1.154701  0.000000 )  
               b(3) = (  0.000000  0.000000  0.222667 )  


     PseudoPot. # 1 for Ta read from file:
     /fastscratch/tsievers/TaS2_24_ph_benchmark_images//pseudos/Ta.pbe-hgh.UPF
     MD5 check sum: 129c51a9a4223465c43ca8d238d17e53
     Pseudo is Norm-conserving, Zval =  5.0
     Generated in analytical, separable form
     Using radial grid of 1273 points,  6 beta functions with: 
                l(1) =   0
                l(2) =   0
                l(3) =   1
                l(4) =   1
                l(5) =   2
                l(6) =   2

     PseudoPot. # 2 for S  read from file:
     /fastscratch/tsievers/TaS2_24_ph_benchmark_images//pseudos/S.pbe-hgh.UPF
[...]

      iter #   4 total cpu time : 19732.2 secs   av.it.:  16.0
      thresh= 4.232E-06 alpha_mix =  0.700 |ddv_scf|^2 =  1.089E-10

      iter #   5 total cpu time : 19736.7 secs   av.it.:  15.4
      thresh= 1.044E-06 alpha_mix =  0.700 |ddv_scf|^2 =  1.145E-13

      iter #   6 total cpu time : 19742.5 secs   av.it.:  15.9
      thresh= 3.383E-08 alpha_mix =  0.700 |ddv_scf|^2 =  1.312E-14

      iter #   7 total cpu time : 19748.2 secs   av.it.:  16.5
      thresh= 1.145E-08 alpha_mix =  0.700 |ddv_scf|^2 =  3.519E-16

      iter #   8 total cpu time : 19753.8 secs   av.it.:  16.7
      thresh= 1.876E-09 alpha_mix =  0.700 |ddv_scf|^2 =  7.315E-18

      iter #   9 total cpu time : 19759.1 secs   av.it.:  16.4
      thresh= 2.705E-10 alpha_mix =  0.700 |ddv_scf|^2 =  1.224E-18

      iter #  10 total cpu time : 19764.1 secs   av.it.:  16.3
      thresh= 1.106E-10 alpha_mix =  0.700 |ddv_scf|^2 =  3.606E-19

      iter #  11 total cpu time : 19769.8 secs   av.it.:  15.6
      thresh= 6.005E-11 alpha_mix =  0.700 |ddv_scf|^2 =  1.650E-21

      iter #  12 total cpu time : 19776.3 secs   av.it.:  16.6
      thresh= 4.062E-12 alpha_mix =  0.700 |ddv_scf|^2 =  1.119E-21

      iter #  13 total cpu time : 19780.6 secs   av.it.:  15.7
      thresh= 3.344E-12 alpha_mix =  0.700 |ddv_scf|^2 =  4.155E-23

     End of self-consistent calculation

     Convergence has been achieved 


     Representation #   3 mode #   3

     Self-consistent Calculation

      iter #   1 total cpu time : 19785.2 secs   av.it.:   7.7
      thresh= 1.000E-02 alpha_mix =  0.700 |ddv_scf|^2 =  3.594E-07

      iter #   2 total cpu time : 19790.3 secs   av.it.:  16.6
      thresh= 5.995E-05 alpha_mix =  0.700 |ddv_scf|^2 =  5.447E-07

      iter #   3 total cpu time : 19794.8 secs   av.it.:  15.4
      thresh= 7.380E-05 alpha_mix =  0.700 |ddv_scf|^2 =  2.207E-10

      iter #   4 total cpu time : 19799.8 secs   av.it.:  15.9
      thresh= 1.485E-06 alpha_mix =  0.700 |ddv_scf|^2 =  2.557E-11

      iter #   5 total cpu time : 19805.8 secs   av.it.:  16.1
      thresh= 5.057E-07 alpha_mix =  0.700 |ddv_scf|^2 =  4.492E-13

      iter #   6 total cpu time : 19812.0 secs   av.it.:  16.4
      thresh= 6.702E-08 alpha_mix =  0.700 |ddv_scf|^2 =  4.288E-14

      iter #   7 total cpu time : 19817.7 secs   av.it.:  16.6
      thresh= 2.071E-08 alpha_mix =  0.700 |ddv_scf|^2 =  1.786E-16

      iter #   8 total cpu time : 19822.8 secs   av.it.:  16.4
      thresh= 1.336E-09 alpha_mix =  0.700 |ddv_scf|^2 =  1.542E-17

      iter #   9 total cpu time : 19828.0 secs   av.it.:  16.0
      thresh= 3.926E-10 alpha_mix =  0.700 |ddv_scf|^2 =  9.694E-19

      iter #  10 total cpu time : 19833.9 secs   av.it.:  16.6
      thresh= 9.846E-11 alpha_mix =  0.700 |ddv_scf|^2 =  6.925E-20

      iter #  11 total cpu time : 19839.2 secs   av.it.:  16.2
      thresh= 2.631E-11 alpha_mix =  0.700 |ddv_scf|^2 =  1.346E-20

      iter #  12 total cpu time : 19845.2 secs   av.it.:  16.2
      thresh= 1.160E-11 alpha_mix =  0.700 |ddv_scf|^2 =  4.515E-21

      iter #  13 total cpu time : 19850.5 secs   av.it.:  15.9
      thresh= 6.719E-12 alpha_mix =  0.700 |ddv_scf|^2 =  3.445E-23

     End of self-consistent calculation

     Convergence has been achieved 


     Representation #   4 mode #   4

     Self-consistent Calculation

      iter #   1 total cpu time : 19853.5 secs   av.it.:   8.2
      thresh= 1.000E-02 alpha_mix =  0.700 |ddv_scf|^2 =  3.240E-07

      iter #   2 total cpu time : 19858.1 secs   av.it.:  16.4
      thresh= 5.692E-05 alpha_mix =  0.700 |ddv_scf|^2 =  1.692E-07

      iter #   3 total cpu time : 19864.6 secs   av.it.:  15.8
      thresh= 4.113E-05 alpha_mix =  0.700 |ddv_scf|^2 =  4.662E-09

      iter #   4 total cpu time : 19869.2 secs   av.it.:  16.3
      thresh= 6.828E-06 alpha_mix =  0.700 |ddv_scf|^2 =  1.703E-09

      iter #   5 total cpu time : 19873.7 secs   av.it.:  15.7
      thresh= 4.127E-06 alpha_mix =  0.700 |ddv_scf|^2 =  2.615E-12

      iter #   6 total cpu time : 19878.2 secs   av.it.:  15.9
      thresh= 1.617E-07 alpha_mix =  0.700 |ddv_scf|^2 =  6.831E-14

      iter #   7 total cpu time : 19883.3 secs   av.it.:  16.1
      thresh= 2.614E-08 alpha_mix =  0.700 |ddv_scf|^2 =  7.285E-16

      iter #   8 total cpu time : 19888.9 secs   av.it.:  15.4
      thresh= 2.699E-09 alpha_mix =  0.700 |ddv_scf|^2 =  1.702E-16

      iter #   9 total cpu time : 19895.9 secs   av.it.:  16.4
      thresh= 1.305E-09 alpha_mix =  0.700 |ddv_scf|^2 =  2.450E-18

      iter #  10 total cpu time : 19900.5 secs   av.it.:  16.1
      thresh= 1.565E-10 alpha_mix =  0.700 |ddv_scf|^2 =  1.402E-19

      iter #  11 total cpu time : 19905.5 secs   av.it.:  16.3
      thresh= 3.744E-11 alpha_mix =  0.700 |ddv_scf|^2 =  1.689E-20

      iter #  12 total cpu time : 19910.7 secs   av.it.:  16.8
      thresh= 1.299E-11 alpha_mix =  0.700 |ddv_scf|^2 =  9.278E-21

      iter #  13 total cpu time : 19915.9 secs   av.it.:  16.0
      thresh= 9.632E-12 alpha_mix =  0.700 |ddv_scf|^2 =  1.486E-21

      iter #  14 total cpu time : 19921.5 secs   av.it.:  15.9
      thresh= 3.855E-12 alpha_mix =  0.700 |ddv_scf|^2 =  6.146E-23

     End of self-consistent calculation

     Convergence has been achieved 


     Representation #   5 mode #   5

     Self-consistent Calculation

      iter #   1 total cpu time : 19925.8 secs   av.it.:   7.7
      thresh= 1.000E-02 alpha_mix =  0.700 |ddv_scf|^2 =  2.223E-07

      iter #   2 total cpu time : 19931.9 secs   av.it.:  16.7
      thresh= 4.714E-05 alpha_mix =  0.700 |ddv_scf|^2 =  2.563E-07

      iter #   3 total cpu time : 19937.8 secs   av.it.:  15.8
      thresh= 5.063E-05 alpha_mix =  0.700 |ddv_scf|^2 =  2.470E-09

      iter #   4 total cpu time : 19942.5 secs   av.it.:  16.0
      thresh= 4.970E-06 alpha_mix =  0.700 |ddv_scf|^2 =  8.309E-11

      iter #   5 total cpu time : 19950.1 secs   av.it.:  15.5
      thresh= 9.115E-07 alpha_mix =  0.700 |ddv_scf|^2 =  3.412E-12

      iter #   6 total cpu time : 19957.1 secs   av.it.:  15.8
      thresh= 1.847E-07 alpha_mix =  0.700 |ddv_scf|^2 =  2.169E-14

      iter #   7 total cpu time : 19961.7 secs   av.it.:  16.2
      thresh= 1.473E-08 alpha_mix =  0.700 |ddv_scf|^2 =  3.603E-16

      iter #   8 total cpu time : 19967.2 secs   av.it.:  16.2
      thresh= 1.898E-09 alpha_mix =  0.700 |ddv_scf|^2 =  1.533E-17

      iter #   9 total cpu time : 19972.3 secs   av.it.:  16.1
      thresh= 3.915E-10 alpha_mix =  0.700 |ddv_scf|^2 =  1.313E-18

      iter #  10 total cpu time : 19977.4 secs   av.it.:  17.0
      thresh= 1.146E-10 alpha_mix =  0.700 |ddv_scf|^2 =  7.844E-19

      iter #  11 total cpu time : 19982.2 secs   av.it.:  16.1
      thresh= 8.857E-11 alpha_mix =  0.700 |ddv_scf|^2 =  4.081E-20

      iter #  12 total cpu time : 19987.3 secs   av.it.:  16.4
      thresh= 2.020E-11 alpha_mix =  0.700 |ddv_scf|^2 =  7.688E-21

      iter #  13 total cpu time : 19993.9 secs   av.it.:  16.4
      thresh= 8.768E-12 alpha_mix =  0.700 |ddv_scf|^2 =  1.049E-21

      iter #  14 total cpu time : 19998.4 secs   av.it.:  16.4
      thresh= 3.239E-12 alpha_mix =  0.700 |ddv_scf|^2 =  4.406E-22

     End of self-consistent calculation

     Convergence has been achieved 


     Representation #   6 mode #   6

     Self-consistent Calculation

      iter #   1 total cpu time : 20001.6 secs   av.it.:   8.1
      thresh= 1.000E-02 alpha_mix =  0.700 |ddv_scf|^2 =  3.618E-07

      iter #   2 total cpu time : 20006.3 secs   av.it.:  16.3
      thresh= 6.015E-05 alpha_mix =  0.700 |ddv_scf|^2 =  1.675E-07

      iter #   3 total cpu time : 20010.7 secs   av.it.:  15.6
      thresh= 4.092E-05 alpha_mix =  0.700 |ddv_scf|^2 =  3.975E-10

      iter #   4 total cpu time : 20015.0 secs   av.it.:  14.3
      thresh= 1.994E-06 alpha_mix =  0.700 |ddv_scf|^2 =  2.188E-13

      iter #   5 total cpu time : 20019.4 secs   av.it.:  15.6
      thresh= 4.678E-08 alpha_mix =  0.700 |ddv_scf|^2 =  1.394E-14

      iter #   6 total cpu time : 20026.0 secs   av.it.:  15.7
      thresh= 1.180E-08 alpha_mix =  0.700 |ddv_scf|^2 =  1.393E-16

      iter #   7 total cpu time : 20031.6 secs   av.it.:  15.9
      thresh= 1.180E-09 alpha_mix =  0.700 |ddv_scf|^2 =  6.538E-18

      iter #   8 total cpu time : 20037.3 secs   av.it.:  16.3
      thresh= 2.557E-10 alpha_mix =  0.700 |ddv_scf|^2 =  1.221E-19

      iter #   9 total cpu time : 20042.7 secs   av.it.:  16.6
      thresh= 3.494E-11 alpha_mix =  0.700 |ddv_scf|^2 =  8.116E-21

      iter #  10 total cpu time : 20047.0 secs   av.it.:  16.0
      thresh= 9.009E-12 alpha_mix =  0.700 |ddv_scf|^2 =  2.497E-22

     End of self-consistent calculation

     Convergence has been achieved 


     Representation #   7 mode #   7

     Self-consistent Calculation

      iter #   1 total cpu time : 20050.0 secs   av.it.:   7.2
      thresh= 1.000E-02 alpha_mix =  0.700 |ddv_scf|^2 =  6.043E-08

      iter #   2 total cpu time : 20055.8 secs   av.it.:  16.4
      thresh= 2.458E-05 alpha_mix =  0.700 |ddv_scf|^2 =  2.617E-08

      iter #   3 total cpu time : 20060.4 secs   av.it.:  15.6
      thresh= 1.618E-05 alpha_mix =  0.700 |ddv_scf|^2 =  1.430E-10

      iter #   4 total cpu time : 20064.7 secs   av.it.:  14.8
      thresh= 1.196E-06 alpha_mix =  0.700 |ddv_scf|^2 =  1.637E-12

      iter #   5 total cpu time : 20084.0 secs   av.it.:  15.3
      thresh= 1.279E-07 alpha_mix =  0.700 |ddv_scf|^2 =  1.015E-14

      iter #   6 total cpu time : 20090.9 secs   av.it.:  16.2
      thresh= 1.007E-08 alpha_mix =  0.700 |ddv_scf|^2 =  4.397E-17

      iter #   7 total cpu time : 20096.1 secs   av.it.:  16.3
      thresh= 6.631E-10 alpha_mix =  0.700 |ddv_scf|^2 =  2.207E-18

      iter #   8 total cpu time : 20101.6 secs   av.it.:  16.0
      thresh= 1.486E-10 alpha_mix =  0.700 |ddv_scf|^2 =  1.090E-20

      iter #   9 total cpu time : 20107.3 secs   av.it.:  16.1
      thresh= 1.044E-11 alpha_mix =  0.700 |ddv_scf|^2 =  1.152E-21

      iter #  10 total cpu time : 20111.7 secs   av.it.:  16.4
      thresh= 3.394E-12 alpha_mix =  0.700 |ddv_scf|^2 =  2.965E-22

     End of self-consistent calculation

     Convergence has been achieved 


     Representation #   8 mode #   8

     Self-consistent Calculation

      iter #   1 total cpu time : 20114.8 secs   av.it.:   8.2
      thresh= 1.000E-02 alpha_mix =  0.700 |ddv_scf|^2 =  3.153E-07

      iter #   2 total cpu time : 20123.9 secs   av.it.:  16.3
      thresh= 5.615E-05 alpha_mix =  0.700 |ddv_scf|^2 =  1.176E-07

      iter #   3 total cpu time : 20128.6 secs   av.it.:  15.6
      thresh= 3.430E-05 alpha_mix =  0.700 |ddv_scf|^2 =  3.858E-10

      iter #   4 total cpu time : 20132.7 secs   av.it.:  14.3
      thresh= 1.964E-06 alpha_mix =  0.700 |ddv_scf|^2 =  1.879E-13

      iter #   5 total cpu time : 20138.0 secs   av.it.:  15.8
      thresh= 4.335E-08 alpha_mix =  0.700 |ddv_scf|^2 =  1.020E-14

      iter #   6 total cpu time : 20142.6 secs   av.it.:  15.4
      thresh= 1.010E-08 alpha_mix =  0.700 |ddv_scf|^2 =  1.374E-16

      iter #   7 total cpu time : 20147.4 secs   av.it.:  15.8
      thresh= 1.172E-09 alpha_mix =  0.700 |ddv_scf|^2 =  2.369E-18

      iter #   8 total cpu time : 20154.3 secs   av.it.:  16.1
      thresh= 1.539E-10 alpha_mix =  0.700 |ddv_scf|^2 =  1.134E-19

      iter #   9 total cpu time : 20159.6 secs   av.it.:  16.3
      thresh= 3.367E-11 alpha_mix =  0.700 |ddv_scf|^2 =  1.765E-20

      iter #  10 total cpu time : 20164.5 secs   av.it.:  15.9
      thresh= 1.329E-11 alpha_mix =  0.700 |ddv_scf|^2 =  2.101E-22

     End of self-consistent calculation

     Convergence has been achieved 


     Representation #   9 mode #   9

     Self-consistent Calculation

      iter #   1 total cpu time : 20168.0 secs   av.it.:   8.0
      thresh= 1.000E-02 alpha_mix =  0.700 |ddv_scf|^2 =  1.257E-07

      iter #   2 total cpu time : 20173.4 secs   av.it.:  16.2
      thresh= 3.545E-05 alpha_mix =  0.700 |ddv_scf|^2 =  5.112E-08

      iter #   3 total cpu time : 20178.9 secs   av.it.:  16.0
      thresh= 2.261E-05 alpha_mix =  0.700 |ddv_scf|^2 =  9.543E-09

      iter #   4 total cpu time : 20186.6 secs   av.it.:  15.6
      thresh= 9.769E-06 alpha_mix =  0.700 |ddv_scf|^2 =  2.994E-10

      iter #   5 total cpu time : 20190.9 secs   av.it.:  15.4
      thresh= 1.730E-06 alpha_mix =  0.700 |ddv_scf|^2 =  1.332E-13

      iter #   6 total cpu time : 20195.5 secs   av.it.:  14.8
      thresh= 3.650E-08 alpha_mix =  0.700 |ddv_scf|^2 =  2.190E-15

      iter #   7 total cpu time : 20199.9 secs   av.it.:  15.4
      thresh= 4.680E-09 alpha_mix =  0.700 |ddv_scf|^2 =  1.896E-17

      iter #   8 total cpu time : 20205.0 secs   av.it.:  16.0
      thresh= 4.354E-10 alpha_mix =  0.700 |ddv_scf|^2 =  9.403E-19

      iter #   9 total cpu time : 20213.1 secs   av.it.:  16.2
      thresh= 9.697E-11 alpha_mix =  0.700 |ddv_scf|^2 =  6.003E-20

      iter #  10 total cpu time : 20218.0 secs   av.it.:  16.8
      thresh= 2.450E-11 alpha_mix =  0.700 |ddv_scf|^2 =  4.388E-20

      iter #  11 total cpu time : 20222.6 secs   av.it.:  15.8
      thresh= 2.095E-11 alpha_mix =  0.700 |ddv_scf|^2 =  1.424E-21

      iter #  12 total cpu time : 20227.2 secs   av.it.:  16.4
      thresh= 3.774E-12 alpha_mix =  0.700 |ddv_scf|^2 =  3.952E-23

     End of self-consistent calculation

     Convergence has been achieved 
 
     Number of q in the star =    2
     List of q in the star:
          1   0.333333333   0.577350269   0.000000000
          2  -0.333333333   0.577350269   0.000000000

     Diagonalizing the dynamical matrix

     q = (    0.333333333   0.577350269   0.000000000 ) 

 **************************************************************************
     freq (    1) =      -0.798522 [THz] =     -26.635832 [cm-1]
     freq (    2) =       2.593069 [THz] =      86.495481 [cm-1]
     freq (    3) =       4.339703 [THz] =     144.756912 [cm-1]
     freq (    4) =       8.663120 [THz] =     288.970562 [cm-1]
     freq (    5) =       8.918115 [THz] =     297.476300 [cm-1]
     freq (    6) =       9.085497 [THz] =     303.059555 [cm-1]
     freq (    7) =       9.135380 [THz] =     304.723493 [cm-1]
     freq (    8) =       9.324426 [THz] =     311.029364 [cm-1]
     freq (    9) =      11.399953 [THz] =     380.261490 [cm-1]
 **************************************************************************

     Mode symmetry, C_3h (-6)   point group:

     freq (   1-   1) =        -26.6  [cm-1]   --> E'                 
     freq (   2-   2) =         86.5  [cm-1]   --> A''                
     freq (   3-   3) =        144.8  [cm-1]   --> E'*                
     freq (   4-   4) =        289.0  [cm-1]   --> E'                 
     freq (   5-   5) =        297.5  [cm-1]   --> A''                
     freq (   6-   6) =        303.1  [cm-1]   --> E''*               
     freq (   7-   7) =        304.7  [cm-1]   --> A'                 
     freq (   8-   8) =        311.0  [cm-1]   --> E''                
     freq (   9-   9) =        380.3  [cm-1]   --> E'*                
 
     init_run     :      1.53s CPU      4.53s WALL (       8 calls)
     electrons    :    340.68s CPU    362.62s WALL (       8 calls)

     Called by init_run:
     wfcinit      :      0.00s CPU      0.21s WALL (       8 calls)
     potinit      :      0.17s CPU      2.97s WALL (       8 calls)
     hinit0       :      0.77s CPU      0.77s WALL (       8 calls)

     Called by electrons:
     c_bands      :    340.61s CPU    362.55s WALL (       8 calls)
     v_of_rho     :      0.12s CPU      0.13s WALL (       9 calls)

     Called by c_bands:
     init_us_2    :     37.73s CPU     39.61s WALL (  289668 calls)
     init_us_2:cp :     36.94s CPU     38.91s WALL (  289668 calls)
     cegterg      :    230.44s CPU    235.20s WALL (    4090 calls)

     Called by *egterg:
     cdiaghg      :     27.14s CPU     27.77s WALL (   60377 calls)
     h_psi        :  11181.43s CPU  11481.56s WALL ( 5849023 calls)
     g_psi        :      1.20s CPU      1.23s WALL (   57559 calls)

     Called by h_psi:
     h_psi:calbec :    490.62s CPU    503.77s WALL ( 5849023 calls)
     vloc_psi     :  10353.82s CPU  10631.76s WALL ( 5849023 calls)
     add_vuspsi   :    276.02s CPU    285.87s WALL ( 5849023 calls)

     General routines
     calbec       :    883.03s CPU    910.11s WALL (11698393 calls)
     fft          :     15.23s CPU     17.43s WALL (   18598 calls)
     ffts         :      7.78s CPU      7.92s WALL (   16185 calls)
     fftw         :  12772.31s CPU  13094.84s WALL (80978808 calls)
     interpolate  :      3.26s CPU      3.30s WALL (    2856 calls)
     davcio       :     43.07s CPU    393.15s WALL ( 1340442 calls)
 
     Parallel routines
 
     PHONON       :      5h15m CPU      5h37m WALL

     INITIALIZATION: 
     phq_setup    :      0.28s CPU      0.91s WALL (       8 calls)
     phq_init     :      5.08s CPU      5.22s WALL (       8 calls)
 
     phq_init     :      5.08s CPU      5.22s WALL (       8 calls)
     init_vloc    :      0.52s CPU      0.52s WALL (       9 calls)
     init_us_1    :      0.26s CPU      0.26s WALL (       9 calls)
     init_us_2    :     37.73s CPU     39.61s WALL (  289668 calls)
 
     DYNAMICAL MATRIX:
     dynmat0      :      1.88s CPU      1.94s WALL (       8 calls)
     phqscf       :  18530.93s CPU  19799.14s WALL (       8 calls)
     dynmatrix    :      0.31s CPU      1.03s WALL (       8 calls)
 
     phqscf       :  18530.93s CPU  19799.14s WALL (       8 calls)
     solve_linter :  18522.48s CPU  19781.00s WALL (      72 calls)
     drhodv       :      8.35s CPU      8.90s WALL (      72 calls)
 
     dynmat0      :      1.88s CPU      1.94s WALL (       8 calls)
     dynmat_us    :      1.85s CPU      1.89s WALL (       8 calls)
     d2ionq       :      0.03s CPU      0.03s WALL (       8 calls)
 
     dynmat_us    :      1.85s CPU      1.89s WALL (       8 calls)
 
     phqscf       :  18530.93s CPU  19799.14s WALL (       8 calls)
     solve_linter :  18522.48s CPU  19781.00s WALL (      72 calls)
 
     solve_linter :  18522.48s CPU  19781.00s WALL (      72 calls)
     dvqpsi_us    :     60.00s CPU     61.74s WALL (   12681 calls)
     sth_kernel   :  17339.61s CPU  18048.64s WALL (    1420 calls)
     apply_dpot_b :    637.08s CPU    667.32s WALL (  245989 calls)
     ortho        :     38.40s CPU     40.19s WALL (  258670 calls)
     cgsolve      :  12326.38s CPU  12659.76s WALL (  258670 calls)
     incdrhoscf   :   2380.92s CPU   2411.37s WALL (  258670 calls)
     dv_of_drho   :     16.89s CPU     20.11s WALL (    1420 calls)
     mix_pot      :    193.31s CPU    546.35s WALL (    1420 calls)
     psymdvscf    :     51.34s CPU     56.16s WALL (    1420 calls)
 
     dvqpsi_us    :     60.00s CPU     61.74s WALL (   12681 calls)
     dvqpsi_us_on :      3.89s CPU      3.98s WALL (   12681 calls)
 
     cgsolve      :  12326.38s CPU  12659.76s WALL (  258670 calls)
     ch_psi       :  11950.73s CPU  12269.86s WALL ( 5784556 calls)
 
     ch_psi       :  11950.73s CPU  12269.86s WALL ( 5784556 calls)
     h_psi        :  11181.43s CPU  11481.56s WALL ( 5849023 calls)
     last         :    872.54s CPU    896.71s WALL ( 5784556 calls)
 
     h_psi        :  11181.43s CPU  11481.56s WALL ( 5849023 calls)
     add_vuspsi   :    276.02s CPU    285.87s WALL ( 5849023 calls)
 
     incdrhoscf   :   2380.92s CPU   2411.37s WALL (  258670 calls)
 
 
      General routines
     calbec       :    883.03s CPU    910.11s WALL (11698393 calls)
     fft          :     15.23s CPU     17.43s WALL (   18598 calls)
     ffts         :      7.78s CPU      7.92s WALL (   16185 calls)
     fftw         :  12772.31s CPU  13094.84s WALL (80978808 calls)
     davcio       :     43.07s CPU    393.15s WALL ( 1340442 calls)
     write_rec    :      1.39s CPU    177.06s WALL (    1492 calls)
 
     PHONON       :      5h15m CPU      5h37m WALL

