Module for intel-oneAPI 2021.4 loaded.
 
:: initializing oneAPI environment ...
   2803443: BASH_VERSION = 4.4.20(1)-release
:: advisor -- latest
:: ccl -- latest
:: clck -- latest
:: compiler -- latest
:: dal -- latest
:: debugger -- latest
:: dev-utilities -- latest
:: dnnl -- latest
:: dpcpp-ct -- latest
:: dpl -- latest
:: inspector -- latest
:: intelpython -- latest
:: ipp -- latest
:: ippcp -- latest
:: ipp -- latest
:: itac -- latest
:: LPOT -- latest
:: mkl -- latest
:: modelzoo -- latest
:: mpi -- latest
:: pytorch -- latest
:: tbb -- latest
:: tensorflow -- latest
:: vpl -- latest
:: vtune -- latest
:: oneAPI environment initialized ::
 

     Program PWSCF v.7.0 starts on  2Jun2022 at  6:15:25 

     This program is part of the open-source Quantum ESPRESSO suite
     for quantum simulation of materials; please cite
         "P. Giannozzi et al., J. Phys.:Condens. Matter 21 395502 (2009);
         "P. Giannozzi et al., J. Phys.:Condens. Matter 29 465901 (2017);
         "P. Giannozzi et al., J. Chem. Phys. 152 154105 (2020);
          URL http://www.quantum-espresso.org", 
     in publications or presentations arising from this work. More details at
     http://www.quantum-espresso.org/quote

     Parallel version (MPI), running on     4 processors

     MPI processes distributed on     1 nodes
     R & G space division:  proc/nbgrp/npool/nimage =       4
     9785 MiB available memory on the printing compute node when the environment starts
 
     Reading input from in_files/silicon_bench_intel_n_procs_4_9.scf

     Current dimensions of program PWSCF are:
     Max number of different atomic species (ntypx) = 10
     Max number of k-points (npk) =  40000
     Max angular momentum in pseudopotentials (lmaxx) =  4

     Subspace diagonalization in iterative solution of the eigenvalue problem:
     a serial algorithm will be used

 
     Parallelization info
     --------------------
     sticks:   dense  smooth     PW     G-vecs:    dense   smooth      PW
     Min         250     250     75                 5217     5217     869
     Max         251     251     76                 5220     5220     872
     Sum        1003    1003    301                20875    20875    3479
 
     Using Slab Decomposition
 


     bravais-lattice index     =            2
     lattice parameter (alat)  =      10.2000  a.u.
     unit-cell volume          =     265.3020 (a.u.)^3
     number of atoms/cell      =            2
     number of atomic types    =            1
     number of electrons       =         8.00
     number of Kohn-Sham states=            4
     kinetic-energy cutoff     =      70.0000  Ry
     charge density cutoff     =     280.0000  Ry
     scf convergence threshold =      1.0E-12
     mixing beta               =       0.7000
     number of iterations used =            8  plain     mixing
     Exchange-correlation= PBE
                           (   1   4   3   4   0   0   0)

     celldm(1)=  10.200000  celldm(2)=   0.000000  celldm(3)=   0.000000
     celldm(4)=   0.000000  celldm(5)=   0.000000  celldm(6)=   0.000000

     crystal axes: (cart. coord. in units of alat)
               a(1) = (  -0.500000   0.000000   0.500000 )  
               a(2) = (   0.000000   0.500000   0.500000 )  
               a(3) = (  -0.500000   0.500000   0.000000 )  

     reciprocal axes: (cart. coord. in units 2 pi/alat)
               b(1) = ( -1.000000 -1.000000  1.000000 )  
               b(2) = (  1.000000  1.000000  1.000000 )  
               b(3) = ( -1.000000  1.000000 -1.000000 )  


     PseudoPot. # 1 for Si read from file:
     ./pseudos/Si_pbe_v0.4.1.nc.sr.upf
     MD5 check sum: 02fab3f35e82123ef5bf1cb05d5b1a5e
     Pseudo is Norm-conserving + core correction, Zval =  4.0
     Generated using ONCVPSP code by D. R. Hamann
     Using radial grid of 1510 points,  6 beta functions with: 
                l(1) =   0
                l(2) =   0
                l(3) =   1
                l(4) =   1
                l(5) =   2
                l(6) =   2

     atomic species   valence    mass     pseudopotential
        Si             4.00    28.08600     Si( 1.00)

     48 Sym. Ops., with inversion, found (24 have fractional translation)



   Cartesian axes

     site n.     atom                  positions (alat units)
         1           Si  tau(   1) = (   0.0000000   0.0000000   0.0000000  )
         2           Si  tau(   2) = (   0.2500000   0.2500000   0.2500000  )

     number of k points=  1661

     Number of k-points >= 100: set verbosity='high' to print them.

     Dense  grid:    20875 G-vectors     FFT dimensions: (  40,  40,  40)

     Estimated max dynamical RAM per process >      71.68 MB

     Estimated total dynamical RAM >     286.73 MB

     Initial potential from superposition of free atoms

     starting charge       7.9988, renormalised to       8.0000
     Starting wfcs are    8 randomized atomic wfcs

     total cpu time spent up to now is        5.5 secs

     Self-consistent Calculation

     iteration #  1     ecut=    70.00 Ry     beta= 0.70
     Davidson diagonalization with overlap
     ethr =  1.00E-02,  avg # of iterations =  2.0

     Threshold (ethr) on eigenvalues was too large:
     Diagonalizing with lowered threshold

     Davidson diagonalization with overlap
     ethr =  5.86E-04,  avg # of iterations =  2.0

     total cpu time spent up to now is       27.5 secs

     total energy              =     -16.92149425 Ry
     estimated scf accuracy    <       0.05529107 Ry

     iteration #  2     ecut=    70.00 Ry     beta= 0.70
     Davidson diagonalization with overlap
     ethr =  6.91E-04,  avg # of iterations =  1.0

     total cpu time spent up to now is       36.5 secs

     total energy              =     -16.92319855 Ry
     estimated scf accuracy    <       0.00290987 Ry

     iteration #  3     ecut=    70.00 Ry     beta= 0.70
     Davidson diagonalization with overlap
     ethr =  3.64E-05,  avg # of iterations =  2.3

     total cpu time spent up to now is       48.1 secs

     total energy              =     -16.92386791 Ry
     estimated scf accuracy    <       0.00006646 Ry

     iteration #  4     ecut=    70.00 Ry     beta= 0.70
     Davidson diagonalization with overlap
     ethr =  8.31E-07,  avg # of iterations =  5.1

     total cpu time spent up to now is       63.8 secs

     total energy              =     -16.92395274 Ry
     estimated scf accuracy    <       0.00000026 Ry

     iteration #  5     ecut=    70.00 Ry     beta= 0.70
     Davidson diagonalization with overlap
     ethr =  3.24E-09,  avg # of iterations =  6.5

     total cpu time spent up to now is       82.3 secs

     total energy              =     -16.92395445 Ry
     estimated scf accuracy    <          8.3E-09 Ry

     iteration #  6     ecut=    70.00 Ry     beta= 0.70
     Davidson diagonalization with overlap
     ethr =  1.04E-10,  avg # of iterations =  3.7

     total cpu time spent up to now is       95.5 secs

     total energy              =     -16.92395445 Ry
     estimated scf accuracy    <          7.0E-10 Ry

     iteration #  7     ecut=    70.00 Ry     beta= 0.70
     Davidson diagonalization with overlap
     ethr =  8.76E-12,  avg # of iterations =  3.4

     total cpu time spent up to now is      108.4 secs

     total energy              =     -16.92395445 Ry
     estimated scf accuracy    <          1.3E-10 Ry

     iteration #  8     ecut=    70.00 Ry     beta= 0.70
     Davidson diagonalization with overlap
     ethr =  1.60E-12,  avg # of iterations =  2.3

     total cpu time spent up to now is      119.2 secs

     End of self-consistent calculation

     Number of k-points >= 100: set verbosity='high' to print the bands.

     highest occupied level (ev):     6.4228

!    total energy              =     -16.92395445 Ry
     estimated scf accuracy    <          1.1E-13 Ry

     The total energy is the sum of the following terms:
     one-electron contribution =       5.10086349 Ry
     hartree contribution      =       1.07923925 Ry
     xc contribution           =      -6.20429862 Ry
     ewald contribution        =     -16.89975857 Ry

     convergence has been achieved in   8 iterations

     Writing all to output data dir /fastscratch/tsievers/QE_TMP_DIR/silicon_bench_intel_n_procs_4_9.save/
 
     init_run     :      5.11s CPU      5.40s WALL (       1 calls)
     electrons    :    111.10s CPU    113.81s WALL (       1 calls)

     Called by init_run:
     wfcinit      :      5.00s CPU      5.19s WALL (       1 calls)
     potinit      :      0.01s CPU      0.07s WALL (       1 calls)
     hinit0       :      0.02s CPU      0.04s WALL (       1 calls)

     Called by electrons:
     c_bands      :     99.18s CPU    101.54s WALL (       9 calls)
     sum_band     :     11.86s CPU     12.14s WALL (       9 calls)
     v_of_rho     :      0.05s CPU      0.06s WALL (       9 calls)
     mix_rho      :      0.01s CPU      0.01s WALL (       9 calls)

     Called by c_bands:
     init_us_2    :      5.90s CPU      6.06s WALL (   31559 calls)
     init_us_2:cp :      5.82s CPU      6.00s WALL (   31559 calls)
     cegterg      :     74.36s CPU     76.06s WALL (   14949 calls)

     Called by *egterg:
     cdiaghg      :      2.12s CPU      2.20s WALL (   60324 calls)
     h_psi        :     69.29s CPU     70.94s WALL (   63646 calls)
     g_psi        :      0.61s CPU      0.63s WALL (   47036 calls)

     Called by h_psi:
     h_psi:calbec :      4.76s CPU      4.87s WALL (   63646 calls)
     vloc_psi     :     60.20s CPU     61.64s WALL (   63646 calls)
     add_vuspsi   :      3.74s CPU      3.85s WALL (   63646 calls)

     General routines
     calbec       :      4.59s CPU      4.73s WALL (   63646 calls)
     fft          :      0.02s CPU      0.04s WALL (      91 calls)
     ffts         :      0.00s CPU      0.00s WALL (       9 calls)
     fftw         :     61.22s CPU     62.67s WALL (  491330 calls)
 
     Parallel routines
 
     PWSCF        :   1m56.77s CPU   2m21.65s WALL

 
   This run was terminated on:   6:17:47   2Jun2022            

=------------------------------------------------------------------------------=
   JOB DONE.
=------------------------------------------------------------------------------=
real 142.92
user 535.19
sys 11.38
