Module for intel-oneAPI 2021.4.0 loaded.
Module for gcc 10.2:
(GNU C/C++/FORTRAN compilers v10.2.0) - loaded.
Module for OpenMPI 4.1.0-gcc10.2-infiniband loaded.

     Program PWSCF v.7.0 starts on 15Mar2022 at 11: 4:12 

     This program is part of the open-source Quantum ESPRESSO suite
     for quantum simulation of materials; please cite
         "P. Giannozzi et al., J. Phys.:Condens. Matter 21 395502 (2009);
         "P. Giannozzi et al., J. Phys.:Condens. Matter 29 465901 (2017);
         "P. Giannozzi et al., J. Chem. Phys. 152 154105 (2020);
          URL http://www.quantum-espresso.org", 
     in publications or presentations arising from this work. More details at
     http://www.quantum-espresso.org/quote

     Parallel version (MPI), running on    10 processors

     MPI processes distributed on     1 nodes
     K-points division:     npool     =       5
     R & G space division:  proc/nbgrp/npool/nimage =       2
     38510 MiB available memory on the printing compute node when the environment starts

     Reading input from in_files/silicon_bench_nk_5_n_procs_10.scf

     Current dimensions of program PWSCF are:
     Max number of different atomic species (ntypx) = 10
     Max number of k-points (npk) =  40000
     Max angular momentum in pseudopotentials (lmaxx) =  4

     Subspace diagonalization in iterative solution of the eigenvalue problem:
     a serial algorithm will be used


     Parallelization info
     --------------------
     sticks:   dense  smooth     PW     G-vecs:    dense   smooth      PW
     Min         501     501    150                10436    10436    1738
     Max         502     502    151                10439    10439    1741
     Sum        1003    1003    301                20875    20875    3479

     Using Slab Decomposition



     bravais-lattice index     =            2
     lattice parameter (alat)  =      10.2000  a.u.
     unit-cell volume          =     265.3020 (a.u.)^3
     number of atoms/cell      =            2
     number of atomic types    =            1
     number of electrons       =         8.00
     number of Kohn-Sham states=            4
     kinetic-energy cutoff     =      70.0000  Ry
     charge density cutoff     =     280.0000  Ry
     scf convergence threshold =      1.0E-12
     mixing beta               =       0.7000
     number of iterations used =            8  plain     mixing
     Exchange-correlation= PBE
                           (   1   4   3   4   0   0   0)

     celldm(1)=  10.200000  celldm(2)=   0.000000  celldm(3)=   0.000000
     celldm(4)=   0.000000  celldm(5)=   0.000000  celldm(6)=   0.000000

     crystal axes: (cart. coord. in units of alat)
               a(1) = (  -0.500000   0.000000   0.500000 )  
               a(2) = (   0.000000   0.500000   0.500000 )  
               a(3) = (  -0.500000   0.500000   0.000000 )  

     reciprocal axes: (cart. coord. in units 2 pi/alat)
               b(1) = ( -1.000000 -1.000000  1.000000 )  
               b(2) = (  1.000000  1.000000  1.000000 )  
               b(3) = ( -1.000000  1.000000 -1.000000 )  


     PseudoPot. # 1 for Si read from file:
     ./pseudos/Si_pbe_v0.4.1.nc.sr.upf
     MD5 check sum: 02fab3f35e82123ef5bf1cb05d5b1a5e
     Pseudo is Norm-conserving + core correction, Zval =  4.0
     Generated using ONCVPSP code by D. R. Hamann
     Using radial grid of 1510 points,  6 beta functions with: 
                l(1) =   0
                l(2) =   0
                l(3) =   1
                l(4) =   1
                l(5) =   2
                l(6) =   2

     atomic species   valence    mass     pseudopotential
        Si             4.00    28.08600     Si( 1.00)

     48 Sym. Ops., with inversion, found (24 have fractional translation)



   Cartesian axes

     site n.     atom                  positions (alat units)
         1           Si  tau(   1) = (   0.0000000   0.0000000   0.0000000  )
         2           Si  tau(   2) = (   0.2500000   0.2500000   0.2500000  )

     number of k points=  1661

     Number of k-points >= 100: set verbosity='high' to print them.

     Dense  grid:    20875 G-vectors     FFT dimensions: (  40,  40,  40)

     Estimated max dynamical RAM per process >      35.67 MB

     Estimated total dynamical RAM >     336.35 MB

     Initial potential from superposition of free atoms

     starting charge       7.9988, renormalised to       8.0000
     Starting wfcs are    8 randomized atomic wfcs

     total cpu time spent up to now is        2.8 secs

     Self-consistent Calculation

     iteration #  1     ecut=    70.00 Ry     beta= 0.70
     Davidson diagonalization with overlap
     ethr =  1.00E-02,  avg # of iterations =  2.0

     Threshold (ethr) on eigenvalues was too large:
     Diagonalizing with lowered threshold

     Davidson diagonalization with overlap
     ethr =  5.86E-04,  avg # of iterations =  2.0

     total cpu time spent up to now is       11.9 secs

     total energy              =     -16.92149689 Ry
     estimated scf accuracy    <       0.05529919 Ry

     iteration #  2     ecut=    70.00 Ry     beta= 0.70
     Davidson diagonalization with overlap
     ethr =  6.91E-04,  avg # of iterations =  1.0

     total cpu time spent up to now is       15.5 secs

     total energy              =     -16.92319966 Ry
     estimated scf accuracy    <       0.00291017 Ry

     iteration #  3     ecut=    70.00 Ry     beta= 0.70
     Davidson diagonalization with overlap
     ethr =  3.64E-05,  avg # of iterations =  2.3

     total cpu time spent up to now is       20.4 secs

     total energy              =     -16.92386801 Ry
     estimated scf accuracy    <       0.00006628 Ry

     iteration #  4     ecut=    70.00 Ry     beta= 0.70
     Davidson diagonalization with overlap
     ethr =  8.28E-07,  avg # of iterations =  5.1

     total cpu time spent up to now is       27.6 secs

     total energy              =     -16.92395272 Ry
     estimated scf accuracy    <       0.00000026 Ry

     iteration #  5     ecut=    70.00 Ry     beta= 0.70
     Davidson diagonalization with overlap
     ethr =  3.20E-09,  avg # of iterations =  6.5

     total cpu time spent up to now is       36.7 secs

     total energy              =     -16.92395445 Ry
     estimated scf accuracy    <          8.0E-09 Ry

     iteration #  6     ecut=    70.00 Ry     beta= 0.70
     Davidson diagonalization with overlap
     ethr =  9.98E-11,  avg # of iterations =  3.7

     total cpu time spent up to now is       42.9 secs

     total energy              =     -16.92395445 Ry
     estimated scf accuracy    <          6.5E-10 Ry

     iteration #  7     ecut=    70.00 Ry     beta= 0.70
     Davidson diagonalization with overlap
     ethr =  8.14E-12,  avg # of iterations =  3.4

     total cpu time spent up to now is       48.8 secs

     total energy              =     -16.92395445 Ry
     estimated scf accuracy    <          1.2E-10 Ry

     iteration #  8     ecut=    70.00 Ry     beta= 0.70
     Davidson diagonalization with overlap
     ethr =  1.54E-12,  avg # of iterations =  2.3

     total cpu time spent up to now is       53.5 secs

     End of self-consistent calculation

     Number of k-points >= 100: set verbosity='high' to print the bands.

     highest occupied level (ev):     6.4228

!    total energy              =     -16.92395445 Ry
     estimated scf accuracy    <          9.9E-14 Ry

     The total energy is the sum of the following terms:
     one-electron contribution =       5.10086350 Ry
     hartree contribution      =       1.07923923 Ry
     xc contribution           =      -6.20429861 Ry
     ewald contribution        =     -16.89975857 Ry

     convergence has been achieved in   8 iterations

     Writing all to output data dir /fastscratch/tsievers/QE_TMP_DIR/silicon_bench_nk_5_n_procs_10.save/

     init_run     :      2.48s CPU      2.76s WALL (       1 calls)
     electrons    :     49.08s CPU     52.25s WALL (       1 calls)

     Called by init_run:
     wfcinit      :      2.31s CPU      2.43s WALL (       1 calls)
     potinit      :      0.03s CPU      0.19s WALL (       1 calls)
     hinit0       :      0.06s CPU      0.07s WALL (       1 calls)

     Called by electrons:
     c_bands      :     43.40s CPU     44.88s WALL (       9 calls)
     sum_band     :      5.46s CPU      5.61s WALL (       9 calls)
     v_of_rho     :      0.20s CPU      0.20s WALL (       9 calls)
     mix_rho      :      0.02s CPU      0.02s WALL (       9 calls)

     Called by c_bands:
     init_us_2    :      3.25s CPU      3.36s WALL (    6327 calls)
     init_us_2:cp :      3.24s CPU      3.35s WALL (    6327 calls)
     cegterg      :     32.26s CPU     33.39s WALL (    2997 calls)

     Called by *egterg:
     cdiaghg      :      0.67s CPU      0.70s WALL (   12654 calls)
     h_psi        :     30.76s CPU     31.86s WALL (   13320 calls)
     g_psi        :      0.32s CPU      0.33s WALL (    9990 calls)

     Called by h_psi:
     h_psi:calbec :      2.10s CPU      2.18s WALL (   13320 calls)
     vloc_psi     :     26.47s CPU     27.42s WALL (   13320 calls)
     add_vuspsi   :      1.96s CPU      2.04s WALL (   13320 calls)

     General routines
     calbec       :      2.07s CPU      2.15s WALL (   13320 calls)
     fft          :      0.04s CPU      0.04s WALL (      91 calls)
     ffts         :      0.00s CPU      0.00s WALL (       9 calls)
     fftw         :     25.51s CPU     26.41s WALL (  100164 calls)

     Parallel routines

     PWSCF        :     51.89s CPU   1m 4.42s WALL


   This run was terminated on:  11: 5:16  15Mar2022            

=------------------------------------------------------------------------------=
   JOB DONE.
=------------------------------------------------------------------------------=
real 65.72
user 582.38
sys 17.99
