Module for intel-oneAPI 2021.4 loaded.
 
:: initializing oneAPI environment ...
   3071216: BASH_VERSION = 4.4.20(1)-release
:: advisor -- latest
:: ccl -- latest
:: clck -- latest
:: compiler -- latest
:: dal -- latest
:: debugger -- latest
:: dev-utilities -- latest
:: dnnl -- latest
:: dpcpp-ct -- latest
:: dpl -- latest
:: inspector -- latest
:: intelpython -- latest
:: ipp -- latest
:: ippcp -- latest
:: ipp -- latest
:: itac -- latest
:: LPOT -- latest
:: mkl -- latest
:: modelzoo -- latest
:: mpi -- latest
:: pytorch -- latest
:: tbb -- latest
:: tensorflow -- latest
:: vpl -- latest
:: vtune -- latest
:: oneAPI environment initialized ::
 

     Program PWSCF v.7.0 starts on 28Jun2022 at  0:29:29 

     This program is part of the open-source Quantum ESPRESSO suite
     for quantum simulation of materials; please cite
         "P. Giannozzi et al., J. Phys.:Condens. Matter 21 395502 (2009);
         "P. Giannozzi et al., J. Phys.:Condens. Matter 29 465901 (2017);
         "P. Giannozzi et al., J. Chem. Phys. 152 154105 (2020);
          URL http://www.quantum-espresso.org", 
     in publications or presentations arising from this work. More details at
     http://www.quantum-espresso.org/quote

     Parallel version (MPI), running on    16 processors

     MPI processes distributed on     1 nodes
     R & G space division:  proc/nbgrp/npool/nimage =      16
     59578 MiB available memory on the printing compute node when the environment starts
 
     Reading input from in_files/silicon_ph_bench_nd_9_n_procs_16_2.scf

     Current dimensions of program PWSCF are:
     Max number of different atomic species (ntypx) = 10
     Max number of k-points (npk) =  40000
     Max angular momentum in pseudopotentials (lmaxx) =  4

     Subspace diagonalization in iterative solution of the eigenvalue problem:
     one sub-group per band group will be used
     scalapack distributed-memory algorithm (size of sub-group:  3*  3 procs)

 
     Parallelization info
     --------------------
     sticks:   dense  smooth     PW     G-vecs:    dense   smooth      PW
     Min          62      62     18                 1303     1303     215
     Max          63      63     19                 1306     1306     218
     Sum        1003    1003    301                20875    20875    3479
 
     Using Slab Decomposition
 


     bravais-lattice index     =            2
     lattice parameter (alat)  =      10.1899  a.u.
     unit-cell volume          =     264.5151 (a.u.)^3
     number of atoms/cell      =            2
     number of atomic types    =            1
     number of electrons       =         8.00
     number of Kohn-Sham states=            4
     kinetic-energy cutoff     =      70.0000  Ry
     charge density cutoff     =     280.0000  Ry
     scf convergence threshold =      1.0E-10
     mixing beta               =       0.7000
     number of iterations used =            8  plain     mixing
     Exchange-correlation= SLA  PW   NOGX NOGC
                           (   1   4   0   0   0   0   0)

     celldm(1)=  10.189905  celldm(2)=   0.000000  celldm(3)=   0.000000
     celldm(4)=   0.000000  celldm(5)=   0.000000  celldm(6)=   0.000000

     crystal axes: (cart. coord. in units of alat)
               a(1) = (  -0.500000   0.000000   0.500000 )  
               a(2) = (   0.000000   0.500000   0.500000 )  
               a(3) = (  -0.500000   0.500000   0.000000 )  

     reciprocal axes: (cart. coord. in units 2 pi/alat)
               b(1) = ( -1.000000 -1.000000  1.000000 )  
               b(2) = (  1.000000  1.000000  1.000000 )  
               b(3) = ( -1.000000  1.000000 -1.000000 )  


     PseudoPot. # 1 for Si read from file:
     ./pseudos/Si.nc.UPF
     MD5 check sum: 9e2d726316af3d4752eea8ab0afbb951
     Pseudo is Norm-conserving + core correction, Zval =  4.0
     Generated using ONCVPSP code by D. R. Hamann
     Using radial grid of 1510 points,  6 beta functions with: 
                l(1) =   0
                l(2) =   0
                l(3) =   1
                l(4) =   1
                l(5) =   2
                l(6) =   2

     atomic species   valence    mass     pseudopotential
        Si             4.00    28.08550     Si( 1.00)

     48 Sym. Ops., with inversion, found (24 have fractional translation)



   Cartesian axes

     site n.     atom                  positions (alat units)
         1           Si  tau(   1) = (   0.0000000   0.0000000   0.0000000  )
         2           Si  tau(   2) = (  -0.2500000   0.2500000   0.2500000  )

     number of k points=    28
                       cart. coord. in units 2pi/alat
        k(    1) = (  -0.0833333   0.0833333   0.0833333), wk =   0.0185185
        k(    2) = (  -0.2500000   0.2500000  -0.0833333), wk =   0.0555556
        k(    3) = (  -0.4166667   0.4166667  -0.2500000), wk =   0.0555556
        k(    4) = (   0.4166667  -0.4166667   0.5833333), wk =   0.0555556
        k(    5) = (   0.2500000  -0.2500000   0.4166667), wk =   0.0555556
        k(    6) = (   0.0833333  -0.0833333   0.2500000), wk =   0.0555556
        k(    7) = (  -0.0833333   0.4166667   0.0833333), wk =   0.0555556
        k(    8) = (  -0.2500000   0.5833333  -0.0833333), wk =   0.1111111
        k(    9) = (   0.5833333  -0.2500000   0.7500000), wk =   0.1111111
        k(   10) = (   0.4166667  -0.0833333   0.5833333), wk =   0.1111111
        k(   11) = (   0.2500000   0.0833333   0.4166667), wk =   0.1111111
        k(   12) = (  -0.0833333   0.7500000   0.0833333), wk =   0.0555556
        k(   13) = (   0.7500000  -0.0833333   0.9166667), wk =   0.1111111
        k(   14) = (   0.5833333   0.0833333   0.7500000), wk =   0.1111111
        k(   15) = (   0.4166667   0.2500000   0.5833333), wk =   0.1111111
        k(   16) = (  -0.0833333  -0.9166667   0.0833333), wk =   0.0555556
        k(   17) = (  -0.2500000  -0.7500000  -0.0833333), wk =   0.1111111
        k(   18) = (  -0.0833333  -0.5833333   0.0833333), wk =   0.0555556
        k(   19) = (  -0.2500000   0.2500000   0.2500000), wk =   0.0185185
        k(   20) = (  -0.4166667   0.4166667   0.0833333), wk =   0.0555556
        k(   21) = (   0.4166667  -0.4166667   0.9166667), wk =   0.0555556
        k(   22) = (   0.2500000  -0.2500000   0.7500000), wk =   0.0555556
        k(   23) = (  -0.2500000   0.5833333   0.2500000), wk =   0.0555556
        k(   24) = (   0.5833333  -0.2500000   1.0833333), wk =   0.1111111
        k(   25) = (   0.4166667  -0.0833333   0.9166667), wk =   0.1111111
        k(   26) = (  -0.2500000  -1.0833333   0.2500000), wk =   0.0555556
        k(   27) = (  -0.4166667   0.4166667   0.4166667), wk =   0.0185185
        k(   28) = (   0.4166667  -0.4166667   1.2500000), wk =   0.0555556

     Dense  grid:    20875 G-vectors     FFT dimensions: (  40,  40,  40)

     Estimated max dynamical RAM per process >       2.64 MB

     Estimated total dynamical RAM >      42.18 MB

     Initial potential from superposition of free atoms

     starting charge       7.9989, renormalised to       8.0000
     Starting wfcs are    8 randomized atomic wfcs

     total cpu time spent up to now is        0.2 secs

     Self-consistent Calculation

     iteration #  1     ecut=    70.00 Ry     beta= 0.70
     Davidson diagonalization with overlap
     ethr =  1.00E-02,  avg # of iterations =  2.0

     Threshold (ethr) on eigenvalues was too large:
     Diagonalizing with lowered threshold

     Davidson diagonalization with overlap
     ethr =  6.13E-04,  avg # of iterations =  2.0

     total cpu time spent up to now is        0.5 secs

     total energy              =     -17.04762415 Ry
     estimated scf accuracy    <       0.05801829 Ry

     iteration #  2     ecut=    70.00 Ry     beta= 0.70
     Davidson diagonalization with overlap
     ethr =  7.25E-04,  avg # of iterations =  1.0

     total cpu time spent up to now is        0.6 secs

     total energy              =     -17.04995490 Ry
     estimated scf accuracy    <       0.00249702 Ry

     iteration #  3     ecut=    70.00 Ry     beta= 0.70
     Davidson diagonalization with overlap
     ethr =  3.12E-05,  avg # of iterations =  2.9

     total cpu time spent up to now is        0.8 secs

     total energy              =     -17.05082612 Ry
     estimated scf accuracy    <       0.00009470 Ry

     iteration #  4     ecut=    70.00 Ry     beta= 0.70
     Davidson diagonalization with overlap
     ethr =  1.18E-06,  avg # of iterations =  4.4

     total cpu time spent up to now is        1.0 secs

     total energy              =     -17.05089824 Ry
     estimated scf accuracy    <       0.00000243 Ry

     iteration #  5     ecut=    70.00 Ry     beta= 0.70
     Davidson diagonalization with overlap
     ethr =  3.04E-08,  avg # of iterations =  4.9

     total cpu time spent up to now is        1.3 secs

     total energy              =     -17.05090101 Ry
     estimated scf accuracy    <       0.00000013 Ry

     iteration #  6     ecut=    70.00 Ry     beta= 0.70
     Davidson diagonalization with overlap
     ethr =  1.61E-09,  avg # of iterations =  3.2

     total cpu time spent up to now is        1.5 secs

     total energy              =     -17.05090106 Ry
     estimated scf accuracy    <       0.00000001 Ry

     iteration #  7     ecut=    70.00 Ry     beta= 0.70
     Davidson diagonalization with overlap
     ethr =  1.71E-10,  avg # of iterations =  2.9

     total cpu time spent up to now is        1.7 secs

     End of self-consistent calculation

          k =-0.0833 0.0833 0.0833 (  2667 PWs)   bands (ev):

    -5.7561   5.3866   6.1106   6.1106

          k =-0.2500 0.2500-0.0833 (  2621 PWs)   bands (ev):

    -5.2692   3.2787   4.8359   5.9020

          k =-0.4167 0.4167-0.2500 (  2618 PWs)   bands (ev):

    -4.1491   0.4558   4.3704   5.2525

          k = 0.4167-0.4167 0.5833 (  2604 PWs)   bands (ev):

    -3.4238  -0.7235   4.4440   4.8612

          k = 0.2500-0.2500 0.4167 (  2618 PWs)   bands (ev):

    -4.5725   1.3222   4.9163   4.9543

          k = 0.0833-0.0833 0.2500 (  2643 PWs)   bands (ev):

    -5.5104   4.3092   5.4447   5.6431

          k =-0.0833 0.4167 0.0833 (  2627 PWs)   bands (ev):

    -5.0231   3.1094   4.6844   4.6977

          k =-0.2500 0.5833-0.0833 (  2613 PWs)   bands (ev):

    -4.0918   1.2428   3.3199   4.3008

          k = 0.5833-0.2500 0.7500 (  2616 PWs)   bands (ev):

    -2.9383  -0.5645   2.7090   4.0652

          k = 0.4167-0.0833 0.5833 (  2617 PWs)   bands (ev):

    -3.6856   0.5301   2.6549   4.5685

          k = 0.2500 0.0833 0.4167 (  2624 PWs)   bands (ev):

    -4.7922   2.2460   4.0374   5.2604

          k =-0.0833 0.7500 0.0833 (  2617 PWs)   bands (ev):

    -3.3664   0.4197   3.2861   3.6484

          k = 0.7500-0.0833 0.9167 (  2608 PWs)   bands (ev):

    -2.1400  -0.9430   2.4039   3.2177

          k = 0.5833 0.0833 0.7500 (  2608 PWs)   bands (ev):

    -2.5099  -0.6178   1.9049   3.7798

          k = 0.4167 0.2500 0.5833 (  2622 PWs)   bands (ev):

    -3.5664  -0.1967   3.6417   4.6731

          k =-0.0833-0.9167 0.0833 (  2604 PWs)   bands (ev):

    -2.2385  -0.9535   3.0091   3.4291

          k =-0.2500-0.7500-0.0833 (  2615 PWs)   bands (ev):

    -3.1914   0.1893   2.7413   3.5675

          k =-0.0833-0.5833 0.0833 (  2620 PWs)   bands (ev):

    -4.3033   1.8031   3.8480   4.0788

          k =-0.2500 0.2500 0.2500 (  2632 PWs)   bands (ev):

    -5.0343   2.2731   5.4857   5.4857

          k =-0.4167 0.4167 0.0833 (  2620 PWs)   bands (ev):

    -4.3392   1.3430   3.2813   5.3165

          k = 0.4167-0.4167 0.9167 (  2613 PWs)   bands (ev):

    -3.1274  -0.1140   2.1362   4.5076

          k = 0.2500-0.2500 0.7500 (  2618 PWs)   bands (ev):

    -3.0761  -0.1941   2.6355   4.0115

          k =-0.2500 0.5833 0.2500 (  2613 PWs)   bands (ev):

    -3.9042   0.5133   3.7736   4.3933

          k = 0.5833-0.2500 1.0833 (  2619 PWs)   bands (ev):

    -2.8765  -0.2149   2.2381   3.5572

          k = 0.4167-0.0833 0.9167 (  2613 PWs)   bands (ev):

    -2.0245  -0.9506   2.0592   2.8637

          k =-0.2500-1.0833 0.2500 (  2605 PWs)   bands (ev):

    -2.2385  -0.8649   1.9289   3.8127

          k =-0.4167 0.4167 0.4167 (  2602 PWs)   bands (ev):

    -3.8074  -0.3119   5.0941   5.0941

          k = 0.4167-0.4167 1.2500 (  2605 PWs)   bands (ev):

    -3.1840  -0.6106   3.2018   4.6388

     highest occupied level (ev):     6.1106

!    total energy              =     -17.05090107 Ry
     estimated scf accuracy    <          4.9E-11 Ry

     The total energy is the sum of the following terms:
     one-electron contribution =       5.01080542 Ry
     hartree contribution      =       1.07710563 Ry
     xc contribution           =      -6.22231085 Ry
     ewald contribution        =     -16.91650128 Ry

     convergence has been achieved in   7 iterations

     Forces acting on atoms (cartesian axes, Ry/au):

     atom    1 type  1   force =    -0.00000000    0.00000000   -0.00000000
     atom    2 type  1   force =     0.00000000   -0.00000000    0.00000000

     Total force =     0.000000     Total SCF correction =     0.000000

     Writing all to output data dir /fastscratch/tsievers/QE_TMP_DIR/silicon_ph_bench_nd_9_n_procs_16_2.save/
 
     init_run     :      0.10s CPU      0.16s WALL (       1 calls)
     electrons    :      1.39s CPU      1.45s WALL (       1 calls)
     forces       :      0.01s CPU      0.01s WALL (       1 calls)

     Called by init_run:
     wfcinit      :      0.08s CPU      0.09s WALL (       1 calls)
     potinit      :      0.00s CPU      0.00s WALL (       1 calls)
     hinit0       :      0.01s CPU      0.05s WALL (       1 calls)

     Called by electrons:
     c_bands      :      1.31s CPU      1.35s WALL (       8 calls)
     sum_band     :      0.08s CPU      0.08s WALL (       8 calls)
     v_of_rho     :      0.00s CPU      0.00s WALL (       8 calls)
     mix_rho      :      0.00s CPU      0.00s WALL (       8 calls)

     Called by c_bands:
     init_us_2    :      0.03s CPU      0.03s WALL (     504 calls)
     init_us_2:cp :      0.03s CPU      0.03s WALL (     504 calls)
     cegterg      :      1.19s CPU      1.23s WALL (     224 calls)

     Called by *egterg:
     cdiaghg      :      0.53s CPU      0.55s WALL (     852 calls)
     h_psi        :      0.48s CPU      0.49s WALL (     908 calls)
     g_psi        :      0.00s CPU      0.00s WALL (     656 calls)

     Called by h_psi:
     h_psi:calbec :      0.03s CPU      0.03s WALL (     908 calls)
     vloc_psi     :      0.42s CPU      0.43s WALL (     908 calls)
     add_vuspsi   :      0.02s CPU      0.02s WALL (     908 calls)

     General routines
     calbec       :      0.03s CPU      0.03s WALL (    1020 calls)
     fft          :      0.01s CPU      0.05s WALL (      28 calls)
     ffts         :      0.00s CPU      0.00s WALL (       8 calls)
     fftw         :      0.44s CPU      0.45s WALL (    7058 calls)
 
     Parallel routines
 
     PWSCF        :      1.56s CPU      1.89s WALL

 
   This run was terminated on:   0:29:31  28Jun2022            

=------------------------------------------------------------------------------=
   JOB DONE.
=------------------------------------------------------------------------------=

     Program PHONON v.7.0 starts on 28Jun2022 at  0:29:33 

     This program is part of the open-source Quantum ESPRESSO suite
     for quantum simulation of materials; please cite
         "P. Giannozzi et al., J. Phys.:Condens. Matter 21 395502 (2009);
         "P. Giannozzi et al., J. Phys.:Condens. Matter 29 465901 (2017);
         "P. Giannozzi et al., J. Chem. Phys. 152 154105 (2020);
          URL http://www.quantum-espresso.org", 
     in publications or presentations arising from this work. More details at
     http://www.quantum-espresso.org/quote

     Parallel version (MPI), running on    16 processors

     MPI processes distributed on     1 nodes
     R & G space division:  proc/nbgrp/npool/nimage =      16
     59560 MiB available memory on the printing compute node when the environment starts
 
     Reading input from in_files/silicon_ph_bench_nd_9_n_procs_16_2.ph
      Title line not specified: using 'default'.

     Reading xml data from directory:

     /fastscratch/tsievers/QE_TMP_DIR/silicon_ph_bench_nd_9_n_procs_16_2.save/

     IMPORTANT: XC functional enforced from input :
     Exchange-correlation= PW
                           (   1   4   0   0   0   0   0)
     Any further DFT definition will be discarded
     Please, verify this is what you really want

 
     Parallelization info
     --------------------
     sticks:   dense  smooth     PW     G-vecs:    dense   smooth      PW
     Min          62      62     18                 1303     1303     215
     Max          63      63     19                 1306     1306     218
     Sum        1003    1003    301                20875    20875    3479
 
     Using Slab Decomposition
 
     Reading collected, re-writing distributed wavefunctions


     Dynamical matrices for ( 6, 6, 6)  uniform grid of q-points
     (  16 q-points):
       N         xq(1)         xq(2)         xq(3) 
       1   0.000000000   0.000000000   0.000000000
       2  -0.166666667   0.166666667  -0.166666667
       3  -0.333333333   0.333333333  -0.333333333
       4   0.500000000  -0.500000000   0.500000000
       5   0.000000000   0.333333333   0.000000000
       6  -0.166666667   0.500000000  -0.166666667
       7   0.666666667  -0.333333333   0.666666667
       8   0.500000000  -0.166666667   0.500000000
       9   0.333333333   0.000000000   0.333333333
      10   0.000000000   0.666666667   0.000000000
      11   0.833333333  -0.166666667   0.833333333
      12   0.666666667  -0.000000000   0.666666667
      13   0.000000000  -1.000000000   0.000000000
      14   0.666666667  -0.333333333   1.000000000
      15   0.500000000  -0.166666667   0.833333333
      16  -0.333333333  -1.000000000   0.000000000

     Calculation of q =    0.0000000   0.0000000   0.0000000

     default                                                                    

     bravais-lattice index     =            2
     lattice parameter (alat)  =      10.1899  a.u.
     unit-cell volume          =     264.5151 (a.u.)^3
     number of atoms/cell      =            2
     number of atomic types    =            1
     kinetic-energy cut-off    =      70.0000  Ry
     charge density cut-off    =     280.0000  Ry
     convergence threshold     =      1.0E-15
     beta                      =       0.7000
     number of iterations used =            4
     Exchange-correlation= PW
                           (   1   4   0   0   0   0   0)


     celldm(1)=   10.18990  celldm(2)=    0.00000  celldm(3)=    0.00000
     celldm(4)=    0.00000  celldm(5)=    0.00000  celldm(6)=    0.00000

     crystal axes: (cart. coord. in units of alat)
               a(1) = ( -0.5000  0.0000  0.5000 )  
               a(2) = (  0.0000  0.5000  0.5000 )  
               a(3) = ( -0.5000  0.5000  0.0000 )  

     reciprocal axes: (cart. coord. in units 2 pi/alat)
               b(1) = ( -1.0000 -1.0000  1.0000 )  
               b(2) = (  1.0000  1.0000  1.0000 )  
               b(3) = ( -1.0000  1.0000 -1.0000 )  


     Atoms inside the unit cell: 

     Cartesian axes

     site n.  atom      mass           positions (alat units)
        1     Si  28.0855   tau(    1) = (    0.00000    0.00000    0.00000  )
        2     Si  28.0855   tau(    2) = (   -0.25000    0.25000    0.25000  )

     Computing dynamical matrix for 
                    q = (   0.0000000   0.0000000   0.0000000 )
 
     49 Sym.Ops. (with q -> -q+G )


     G cutoff =  736.4420  (   1306 G-vectors)     FFT grid: ( 40, 40, 40)
     number of k points=    28

     PseudoPot. # 1 for Si read from file:
     ./pseudos/Si.nc.UPF
     MD5 check sum: 9e2d726316af3d4752eea8ab0afbb951
     Pseudo is Norm-conserving + core correction, Zval =  4.0
     Generated using ONCVPSP code by D. R. Hamann
     Using radial grid of 1510 points,  6 beta functions with: 
                l(1) =   0
                l(2) =   0
                l(3) =   1
                l(4) =   1
                l(5) =   2
                l(6) =   2

     Mode symmetry, O_h (m-3m)  point group:


     Electric field:
     Dielectric constant
     Born effective charges in two ways 


     Atomic displacements:
     There are    2 irreducible representations

     Representation     1      3 modes -  To be done

     Representation     2      3 modes -  To be done



     Alpha used in Ewald sum =   2.8000
     PHONON       :      0.25s CPU      0.41s WALL


     Electric Fields Calculation

      iter #   1 total cpu time :     2.4 secs   av.it.:   6.5
      thresh= 1.000E-02 alpha_mix =  0.700 |ddv_scf|^2 =  7.990E-08

      iter #   2 total cpu time :     3.6 secs   av.it.:  11.9
      thresh= 2.827E-05 alpha_mix =  0.700 |ddv_scf|^2 =  3.424E-09

      iter #   3 total cpu time :     4.6 secs   av.it.:  11.7
      thresh= 5.852E-06 alpha_mix =  0.700 |ddv_scf|^2 =  3.860E-11

      iter #   4 total cpu time :     5.7 secs   av.it.:  12.0
      thresh= 6.213E-07 alpha_mix =  0.700 |ddv_scf|^2 =  2.290E-13

      iter #   5 total cpu time :     6.8 secs   av.it.:  11.0
      thresh= 4.785E-08 alpha_mix =  0.700 |ddv_scf|^2 =  8.407E-17

     End of electric fields calculation

          Dielectric constant in cartesian axis 

          (      13.312093793      -0.000000000       0.000000000 )
          (      -0.000000000      13.312093793       0.000000000 )
          (       0.000000000       0.000000000      13.312093793 )

          Effective charges (d Force / dE) in cartesian axis without acoustic sum rule applied (asr)

           atom      1   Si Mean Z*:       -0.00677
      Ex  (       -0.00677       -0.00000       -0.00000 )
      Ey  (       -0.00000       -0.00677        0.00000 )
      Ez  (       -0.00000        0.00000       -0.00677 )
           atom      2   Si Mean Z*:       -0.00677
      Ex  (       -0.00677        0.00000        0.00000 )
      Ey  (       -0.00000       -0.00677       -0.00000 )
      Ez  (        0.00000       -0.00000       -0.00677 )

          Effective charges Sum: Mean:       -0.01354
             -0.01354       -0.00000        0.00000
             -0.00000       -0.01354        0.00000
              0.00000        0.00000       -0.01354

          Effective charges (d Force / dE) in cartesian axis with asr applied: 
           atom      1   Si Mean Z*:       -0.00000
      E*x (       -0.00000       -0.00000       -0.00000 )
      E*y (       -0.00000       -0.00000        0.00000 )
      E*z (       -0.00000        0.00000       -0.00000 )
           atom      2   Si Mean Z*:        0.00000
      E*x (        0.00000        0.00000        0.00000 )
      E*y (        0.00000        0.00000       -0.00000 )
      E*z (        0.00000       -0.00000        0.00000 )


     Representation #   1 modes #   1   2   3

     Self-consistent Calculation

      iter #   1 total cpu time :     7.8 secs   av.it.:   5.8
      thresh= 1.000E-02 alpha_mix =  0.700 |ddv_scf|^2 =  1.152E-08

      iter #   2 total cpu time :     9.0 secs   av.it.:  11.8
      thresh= 1.073E-05 alpha_mix =  0.700 |ddv_scf|^2 =  2.589E-10

      iter #   3 total cpu time :    10.2 secs   av.it.:  11.8
      thresh= 1.609E-06 alpha_mix =  0.700 |ddv_scf|^2 =  9.662E-12

      iter #   4 total cpu time :    11.4 secs   av.it.:  11.6
      thresh= 3.108E-07 alpha_mix =  0.700 |ddv_scf|^2 =  3.129E-14

      iter #   5 total cpu time :    12.5 secs   av.it.:  12.0
      thresh= 1.769E-08 alpha_mix =  0.700 |ddv_scf|^2 =  1.452E-16

     End of self-consistent calculation

     Convergence has been achieved 


     Representation #   2 modes #   4   5   6

     Self-consistent Calculation

      iter #   1 total cpu time :    13.4 secs   av.it.:   6.0
      thresh= 1.000E-02 alpha_mix =  0.700 |ddv_scf|^2 =  8.313E-09

      iter #   2 total cpu time :    14.7 secs   av.it.:  12.0
      thresh= 9.118E-06 alpha_mix =  0.700 |ddv_scf|^2 =  2.989E-10

      iter #   3 total cpu time :    16.6 secs   av.it.:  11.9
      thresh= 1.729E-06 alpha_mix =  0.700 |ddv_scf|^2 =  1.361E-11

      iter #   4 total cpu time :    17.8 secs   av.it.:  11.9
      thresh= 3.689E-07 alpha_mix =  0.700 |ddv_scf|^2 =  2.436E-14

      iter #   5 total cpu time :    18.9 secs   av.it.:  12.1
      thresh= 1.561E-08 alpha_mix =  0.700 |ddv_scf|^2 =  6.550E-17

     End of self-consistent calculation

     Convergence has been achieved 
 
     Number of q in the star =    1
     List of q in the star:
          1   0.000000000   0.000000000   0.000000000

          Dielectric constant in cartesian axis 

          (      13.312093793      -0.000000000       0.000000000 )
          (      -0.000000000      13.312093793       0.000000000 )
          (       0.000000000       0.000000000      13.312093793 )

          Effective charges (d Force / dE) in cartesian axis without acoustic sum rule applied (asr)

           atom      1   Si Mean Z*:       -0.00677
      Ex  (       -0.00677       -0.00000       -0.00000 )
      Ey  (       -0.00000       -0.00677        0.00000 )
      Ez  (       -0.00000        0.00000       -0.00677 )
           atom      2   Si Mean Z*:       -0.00677
      Ex  (       -0.00677        0.00000        0.00000 )
      Ey  (       -0.00000       -0.00677       -0.00000 )
      Ez  (        0.00000       -0.00000       -0.00677 )

          Effective charges Sum: Mean:       -0.01354
             -0.01354       -0.00000        0.00000
             -0.00000       -0.01354        0.00000
              0.00000        0.00000       -0.01354

          Effective charges (d Force / dE) in cartesian axis with asr applied: 
           atom      1   Si Mean Z*:       -0.00000
      E*x (       -0.00000       -0.00000       -0.00000 )
      E*y (       -0.00000       -0.00000        0.00000 )
      E*z (       -0.00000        0.00000       -0.00000 )
           atom      2   Si Mean Z*:        0.00000
      E*x (        0.00000        0.00000        0.00000 )
      E*y (        0.00000        0.00000       -0.00000 )
      E*z (        0.00000       -0.00000        0.00000 )

          Effective charges (d P / du) in cartesian axis 

           atom      1   Si 
      Px  (       -0.00684        0.00000       -0.00000 )
      Py  (        0.00000       -0.00684       -0.00000 )
      Pz  (        0.00000       -0.00000       -0.00684 )
           atom      2   Si 
      Px  (       -0.00684        0.00000        0.00000 )
      Py  (        0.00000       -0.00684       -0.00000 )
      Pz  (        0.00000       -0.00000       -0.00684 )

     Diagonalizing the dynamical matrix

     q = (    0.000000000   0.000000000   0.000000000 ) 

 **************************************************************************
     freq (    1) =      -0.114954 [THz] =      -3.834456 [cm-1]
     freq (    2) =      -0.114954 [THz] =      -3.834456 [cm-1]
     freq (    3) =      -0.114954 [THz] =      -3.834456 [cm-1]
     freq (    4) =      15.412102 [THz] =     514.092392 [cm-1]
     freq (    5) =      15.412102 [THz] =     514.092392 [cm-1]
     freq (    6) =      15.412102 [THz] =     514.092392 [cm-1]
 **************************************************************************

     Mode symmetry, O_h (m-3m)  point group:

     freq (   1-   3) =         -3.8  [cm-1]   --> T_1u G_15  G_4- I  
     freq (   4-   6) =        514.1  [cm-1]   --> T_2g G_25' G_5+ R  

     Calculation of q =   -0.1666667   0.1666667  -0.1666667

     Subspace diagonalization in iterative solution of the eigenvalue problem:
     one sub-group per band group will be used
     scalapack distributed-memory algorithm (size of sub-group:  3*  3 procs)

 
     Parallelization info
     --------------------
     sticks:   dense  smooth     PW     G-vecs:    dense   smooth      PW
     Min          62      62     19                 1303     1303     230
     Max          63      63     20                 1306     1306     232
     Sum        1003    1003    313                20875    20875    3695
 
     Using Slab Decomposition
 

     Title: 
     default                                                                    


     bravais-lattice index     =            2
     lattice parameter (alat)  =      10.1899  a.u.
     unit-cell volume          =     264.5151 (a.u.)^3
     number of atoms/cell      =            2
     number of atomic types    =            1
     number of electrons       =         8.00
     number of Kohn-Sham states=            4
     kinetic-energy cutoff     =      70.0000  Ry
     charge density cutoff     =     280.0000  Ry
     Exchange-correlation= PW
                           (   1   4   0   0   0   0   0)

     celldm(1)=  10.189905  celldm(2)=   0.000000  celldm(3)=   0.000000
     celldm(4)=   0.000000  celldm(5)=   0.000000  celldm(6)=   0.000000

     crystal axes: (cart. coord. in units of alat)
               a(1) = (  -0.500000   0.000000   0.500000 )  
               a(2) = (   0.000000   0.500000   0.500000 )  
               a(3) = (  -0.500000   0.500000   0.000000 )  

     reciprocal axes: (cart. coord. in units 2 pi/alat)
               b(1) = ( -1.000000 -1.000000  1.000000 )  
               b(2) = (  1.000000  1.000000  1.000000 )  
               b(3) = ( -1.000000  1.000000 -1.000000 )  


     PseudoPot. # 1 for Si read from file:
     ./pseudos/Si.nc.UPF
     MD5 check sum: 9e2d726316af3d4752eea8ab0afbb951
     Pseudo is Norm-conserving + core correction, Zval =  4.0
     Generated using ONCVPSP code by D. R. Hamann
     Using radial grid of 1510 points,  6 beta functions with: 
                l(1) =   0
                l(2) =   0
                l(3) =   1
                l(4) =   1
                l(5) =   2
                l(6) =   2

     atomic species   valence    mass     pseudopotential
        Si             4.00    28.08550     Si( 1.00)

     48 Sym. Ops., with inversion, found



   Cartesian axes

     site n.     atom                  positions (alat units)
         1           Si  tau(   1) = (   0.0000000   0.0000000   0.0000000  )
         2           Si  tau(   2) = (  -0.2500000   0.2500000   0.2500000  )

     number of k points=   364

     Number of k-points >= 100: set verbosity='high' to print them.

     Dense  grid:    20875 G-vectors     FFT dimensions: (  40,  40,  40)

     Estimated max dynamical RAM per process >       2.04 MB

     Estimated total dynamical RAM >      32.63 MB

     The potential is recalculated from file :
     /fastscratch/tsievers/QE_TMP_DIR/_ph0/silicon_ph_bench_nd_9_n_procs_16_2.save/charge-density

     Starting wfcs are    8 atomic wfcs

     Band Structure Calculation
     Davidson diagonalization with overlap

     ethr =  1.25E-10,  avg # of iterations = 12.9

     total cpu time spent up to now is        9.6 secs

     End of band structure calculation

     Number of k-points >= 100: set verbosity='high' to print the bands.

     highest occupied level (ev):     6.1106

     Writing config to output data dir /fastscratch/tsievers/QE_TMP_DIR/_ph0/silicon_ph_bench_nd_9_n_procs_16_2.save/

     default                                                                    

     bravais-lattice index     =            2
     lattice parameter (alat)  =      10.1899  a.u.
     unit-cell volume          =     264.5151 (a.u.)^3
     number of atoms/cell      =            2
     number of atomic types    =            1
     kinetic-energy cut-off    =      70.0000  Ry
     charge density cut-off    =     280.0000  Ry
     convergence threshold     =      1.0E-15
     beta                      =       0.7000
     number of iterations used =            4
     Exchange-correlation= PW
                           (   1   4   0   0   0   0   0)


     celldm(1)=   10.18990  celldm(2)=    0.00000  celldm(3)=    0.00000
     celldm(4)=    0.00000  celldm(5)=    0.00000  celldm(6)=    0.00000

     crystal axes: (cart. coord. in units of alat)
               a(1) = ( -0.5000  0.0000  0.5000 )  
               a(2) = (  0.0000  0.5000  0.5000 )  
               a(3) = ( -0.5000  0.5000  0.0000 )  

     reciprocal axes: (cart. coord. in units 2 pi/alat)
               b(1) = ( -1.0000 -1.0000  1.0000 )  
               b(2) = (  1.0000  1.0000  1.0000 )  
               b(3) = ( -1.0000  1.0000 -1.0000 )  


     Atoms inside the unit cell: 

     Cartesian axes

     site n.  atom      mass           positions (alat units)
        1     Si  28.0855   tau(    1) = (    0.00000    0.00000    0.00000  )
        2     Si  28.0855   tau(    2) = (   -0.25000    0.25000    0.25000  )

     Computing dynamical matrix for 
                    q = (  -0.1666667   0.1666667  -0.1666667 )
 
      6 Sym.Ops. (no q -> -q+G )


     G cutoff =  736.4420  (   1306 G-vectors)     FFT grid: ( 40, 40, 40)
     number of k points=   364

     PseudoPot. # 1 for Si read from file:
     ./pseudos/Si.nc.UPF
     MD5 check sum: 9e2d726316af3d4752eea8ab0afbb951
     Pseudo is Norm-conserving + core correction, Zval =  4.0
     Generated using ONCVPSP code by D. R. Hamann
     Using radial grid of 1510 points,  6 beta functions with: 
                l(1) =   0
                l(2) =   0
                l(3) =   1
                l(4) =   1
                l(5) =   2
                l(6) =   2

     Mode symmetry, C_3v (3m)   point group:


     Atomic displacements:
     There are    4 irreducible representations

     Representation     1      1 modes -  To be done

     Representation     2      1 modes -  To be done

     Representation     3      2 modes -  To be done

     Representation     4      2 modes -  To be done



     Alpha used in Ewald sum =   2.8000
     PHONON       :     25.33s CPU     30.19s WALL



     Representation #   1 mode #   1

     Self-consistent Calculation

      iter #   1 total cpu time :    31.4 secs   av.it.:   6.6
      thresh= 1.000E-02 alpha_mix =  0.700 |ddv_scf|^2 =  1.078E-03

      iter #   2 total cpu time :    32.9 secs   av.it.:   9.0
      thresh= 3.283E-03 alpha_mix =  0.700 |ddv_scf|^2 =  3.531E-02

      iter #   3 total cpu time :    34.2 secs   av.it.:   7.6
      thresh= 1.000E-02 alpha_mix =  0.700 |ddv_scf|^2 =  2.870E-07

      iter #   4 total cpu time :    36.0 secs   av.it.:   9.2
      thresh= 5.358E-05 alpha_mix =  0.700 |ddv_scf|^2 =  9.336E-09

      iter #   5 total cpu time :    37.6 secs   av.it.:   9.6
      thresh= 9.662E-06 alpha_mix =  0.700 |ddv_scf|^2 =  4.343E-10

      iter #   6 total cpu time :    39.1 secs   av.it.:   8.8
      thresh= 2.084E-06 alpha_mix =  0.700 |ddv_scf|^2 =  1.179E-09

      iter #   7 total cpu time :    40.6 secs   av.it.:   8.0
      thresh= 3.433E-06 alpha_mix =  0.700 |ddv_scf|^2 =  6.646E-11

      iter #   8 total cpu time :    42.1 secs   av.it.:   8.6
      thresh= 8.152E-07 alpha_mix =  0.700 |ddv_scf|^2 =  5.169E-13

      iter #   9 total cpu time :    43.6 secs   av.it.:   8.3
      thresh= 7.190E-08 alpha_mix =  0.700 |ddv_scf|^2 =  1.143E-14

      iter #  10 total cpu time :    45.1 secs   av.it.:   8.7
      thresh= 1.069E-08 alpha_mix =  0.700 |ddv_scf|^2 =  1.214E-15

      iter #  11 total cpu time :    48.5 secs   av.it.:   9.1
      thresh= 3.484E-09 alpha_mix =  0.700 |ddv_scf|^2 =  8.443E-17

     End of self-consistent calculation

     Convergence has been achieved 


     Representation #   2 mode #   2

     Self-consistent Calculation

      iter #   1 total cpu time :    49.8 secs   av.it.:   6.6
      thresh= 1.000E-02 alpha_mix =  0.700 |ddv_scf|^2 =  1.078E-03

      iter #   2 total cpu time :    52.4 secs   av.it.:   9.0
      thresh= 3.283E-03 alpha_mix =  0.700 |ddv_scf|^2 =  3.531E-02

      iter #   3 total cpu time :    53.7 secs   av.it.:   7.6
      thresh= 1.000E-02 alpha_mix =  0.700 |ddv_scf|^2 =  2.870E-07

      iter #   4 total cpu time :    56.0 secs   av.it.:   9.2
      thresh= 5.358E-05 alpha_mix =  0.700 |ddv_scf|^2 =  9.336E-09

      iter #   5 total cpu time :    57.6 secs   av.it.:   9.6
      thresh= 9.662E-06 alpha_mix =  0.700 |ddv_scf|^2 =  4.342E-10

      iter #   6 total cpu time :    59.2 secs   av.it.:   8.8
      thresh= 2.084E-06 alpha_mix =  0.700 |ddv_scf|^2 =  1.179E-09

      iter #   7 total cpu time :    60.6 secs   av.it.:   8.0
      thresh= 3.433E-06 alpha_mix =  0.700 |ddv_scf|^2 =  6.646E-11

      iter #   8 total cpu time :    62.2 secs   av.it.:   8.6
      thresh= 8.152E-07 alpha_mix =  0.700 |ddv_scf|^2 =  5.169E-13

      iter #   9 total cpu time :    63.8 secs   av.it.:   8.3
      thresh= 7.190E-08 alpha_mix =  0.700 |ddv_scf|^2 =  1.143E-14

      iter #  10 total cpu time :    65.8 secs   av.it.:   8.7
      thresh= 1.069E-08 alpha_mix =  0.700 |ddv_scf|^2 =  1.214E-15

      iter #  11 total cpu time :    67.3 secs   av.it.:   9.1
      thresh= 3.484E-09 alpha_mix =  0.700 |ddv_scf|^2 =  8.441E-17

     End of self-consistent calculation

     Convergence has been achieved 


     Representation #   3 modes #   3   4

     Self-consistent Calculation

      iter #   1 total cpu time :    69.6 secs   av.it.:   6.1
      thresh= 1.000E-02 alpha_mix =  0.700 |ddv_scf|^2 =  2.811E-08

      iter #   2 total cpu time :    73.2 secs   av.it.:  11.5
      thresh= 1.677E-05 alpha_mix =  0.700 |ddv_scf|^2 =  1.251E-09

      iter #   3 total cpu time :    77.7 secs   av.it.:  11.4
      thresh= 3.537E-06 alpha_mix =  0.700 |ddv_scf|^2 =  3.267E-11

      iter #   4 total cpu time :    81.3 secs   av.it.:  11.5
      thresh= 5.715E-07 alpha_mix =  0.700 |ddv_scf|^2 =  3.769E-13

      iter #   5 total cpu time :    85.2 secs   av.it.:  11.5
      thresh= 6.139E-08 alpha_mix =  0.700 |ddv_scf|^2 =  7.998E-15

      iter #   6 total cpu time :    88.8 secs   av.it.:  11.8
      thresh= 8.943E-09 alpha_mix =  0.700 |ddv_scf|^2 =  3.632E-17

     End of self-consistent calculation

     Convergence has been achieved 


     Representation #   4 modes #   5   6

     Self-consistent Calculation

      iter #   1 total cpu time :    91.2 secs   av.it.:   6.0
      thresh= 1.000E-02 alpha_mix =  0.700 |ddv_scf|^2 =  2.811E-08

      iter #   2 total cpu time :    96.0 secs   av.it.:  11.5
      thresh= 1.677E-05 alpha_mix =  0.700 |ddv_scf|^2 =  1.251E-09

      iter #   3 total cpu time :    99.6 secs   av.it.:  11.4
      thresh= 3.538E-06 alpha_mix =  0.700 |ddv_scf|^2 =  3.267E-11

      iter #   4 total cpu time :   103.2 secs   av.it.:  11.5
      thresh= 5.715E-07 alpha_mix =  0.700 |ddv_scf|^2 =  3.770E-13

      iter #   5 total cpu time :   106.9 secs   av.it.:  11.5
      thresh= 6.140E-08 alpha_mix =  0.700 |ddv_scf|^2 =  8.009E-15

      iter #   6 total cpu time :   110.5 secs   av.it.:  11.8
      thresh= 8.949E-09 alpha_mix =  0.700 |ddv_scf|^2 =  3.628E-17

     End of self-consistent calculation

     Convergence has been achieved 
 
     Number of q in the star =    8
     List of q in the star:
          1  -0.166666667   0.166666667  -0.166666667
          2   0.166666667   0.166666667   0.166666667
          3  -0.166666667  -0.166666667  -0.166666667
          4   0.166666667  -0.166666667   0.166666667
          5   0.166666667  -0.166666667  -0.166666667
          6   0.166666667   0.166666667  -0.166666667
          7  -0.166666667  -0.166666667   0.166666667
          8  -0.166666667   0.166666667   0.166666667

     Diagonalizing the dynamical matrix

     q = (   -0.166666667   0.166666667  -0.166666667 ) 

 **************************************************************************
     freq (    1) =       2.202733 [THz] =      73.475248 [cm-1]
     freq (    2) =       2.202733 [THz] =      73.475248 [cm-1]
     freq (    3) =       4.747925 [THz] =     158.373744 [cm-1]
     freq (    4) =      15.023887 [THz] =     501.142928 [cm-1]
     freq (    5) =      15.065886 [THz] =     502.543876 [cm-1]
     freq (    6) =      15.065886 [THz] =     502.543876 [cm-1]
 **************************************************************************

     Mode symmetry, C_3v (3m)   point group:

     freq (   1-   2) =         73.5  [cm-1]   --> E    L_3           
     freq (   3-   3) =        158.4  [cm-1]   --> A_1  L_1           
     freq (   4-   4) =        501.1  [cm-1]   --> A_1  L_1           
     freq (   5-   6) =        502.5  [cm-1]   --> E    L_3           

     Calculation of q =   -0.3333333   0.3333333  -0.3333333
 
     Parallelization info
     --------------------
     sticks:   dense  smooth     PW     G-vecs:    dense   smooth      PW
     Min          62      62     19                 1303     1303     237
     Max          63      63     20                 1306     1306     242
     Sum        1003    1003    313                20875    20875    3839
 
     Using Slab Decomposition
 

     Title: 
     default                                                                    


     bravais-lattice index     =            2
     lattice parameter (alat)  =      10.1899  a.u.
     unit-cell volume          =     264.5151 (a.u.)^3
     number of atoms/cell      =            2
     number of atomic types    =            1
     number of electrons       =         8.00
     number of Kohn-Sham states=            4
     kinetic-energy cutoff     =      70.0000  Ry
     charge density cutoff     =     280.0000  Ry
     Exchange-correlation= PW
                           (   1   4   0   0   0   0   0)

     celldm(1)=  10.189905  celldm(2)=   0.000000  celldm(3)=   0.000000
     celldm(4)=   0.000000  celldm(5)=   0.000000  celldm(6)=   0.000000

     crystal axes: (cart. coord. in units of alat)
               a(1) = (  -0.500000   0.000000   0.500000 )  
               a(2) = (   0.000000   0.500000   0.500000 )  
               a(3) = (  -0.500000   0.500000   0.000000 )  

     reciprocal axes: (cart. coord. in units 2 pi/alat)
               b(1) = ( -1.000000 -1.000000  1.000000 )  
               b(2) = (  1.000000  1.000000  1.000000 )  
               b(3) = ( -1.000000  1.000000 -1.000000 )  


     PseudoPot. # 1 for Si read from file:
     ./pseudos/Si.nc.UPF
     MD5 check sum: 9e2d726316af3d4752eea8ab0afbb951
     Pseudo is Norm-conserving + core correction, Zval =  4.0
     Generated using ONCVPSP code by D. R. Hamann
     Using radial grid of 1510 points,  6 beta functions with: 
                l(1) =   0
                l(2) =   0
                l(3) =   1
                l(4) =   1
                l(5) =   2
                l(6) =   2

     atomic species   valence    mass     pseudopotential
        Si             4.00    28.08550     Si( 1.00)

     48 Sym. Ops., with inversion, found



   Cartesian axes

     site n.     atom                  positions (alat units)
         1           Si  tau(   1) = (   0.0000000   0.0000000   0.0000000  )
         2           Si  tau(   2) = (  -0.2500000   0.2500000   0.2500000  )

     number of k points=   364

     Number of k-points >= 100: set verbosity='high' to print them.

     Dense  grid:    20875 G-vectors     FFT dimensions: (  40,  40,  40)

     Estimated max dynamical RAM per process >       2.05 MB

     Estimated total dynamical RAM >      32.84 MB

     The potential is recalculated from file :
     /fastscratch/tsievers/QE_TMP_DIR/_ph0/silicon_ph_bench_nd_9_n_procs_16_2.save/charge-density

     Starting wfcs are    8 atomic wfcs

     Band Structure Calculation
     Davidson diagonalization with overlap

     ethr =  1.25E-10,  avg # of iterations = 12.9

     total cpu time spent up to now is       19.9 secs

     End of band structure calculation

     Number of k-points >= 100: set verbosity='high' to print the bands.

     highest occupied level (ev):     6.1106

     Writing config to output data dir /fastscratch/tsievers/QE_TMP_DIR/_ph0/silicon_ph_bench_nd_9_n_procs_16_2.save/

     default                                                                    

     bravais-lattice index     =            2
     lattice parameter (alat)  =      10.1899  a.u.
     unit-cell volume          =     264.5151 (a.u.)^3
     number of atoms/cell      =            2
     number of atomic types    =            1
     kinetic-energy cut-off    =      70.0000  Ry
     charge density cut-off    =     280.0000  Ry
     convergence threshold     =      1.0E-15
     beta                      =       0.7000
     number of iterations used =            4
     Exchange-correlation= PW
                           (   1   4   0   0   0   0   0)


     celldm(1)=   10.18990  celldm(2)=    0.00000  celldm(3)=    0.00000
     celldm(4)=    0.00000  celldm(5)=    0.00000  celldm(6)=    0.00000

     crystal axes: (cart. coord. in units of alat)
               a(1) = ( -0.5000  0.0000  0.5000 )  
               a(2) = (  0.0000  0.5000  0.5000 )  
               a(3) = ( -0.5000  0.5000  0.0000 )  

     reciprocal axes: (cart. coord. in units 2 pi/alat)
               b(1) = ( -1.0000 -1.0000  1.0000 )  
               b(2) = (  1.0000  1.0000  1.0000 )  
               b(3) = ( -1.0000  1.0000 -1.0000 )  


     Atoms inside the unit cell: 

     Cartesian axes

     site n.  atom      mass           positions (alat units)
        1     Si  28.0855   tau(    1) = (    0.00000    0.00000    0.00000  )
        2     Si  28.0855   tau(    2) = (   -0.25000    0.25000    0.25000  )

     Computing dynamical matrix for 
                    q = (  -0.3333333   0.3333333  -0.3333333 )
 
      6 Sym.Ops. (no q -> -q+G )


     G cutoff =  736.4420  (   1306 G-vectors)     FFT grid: ( 40, 40, 40)
     number of k points=   364

     PseudoPot. # 1 for Si read from file:
     ./pseudos/Si.nc.UPF
     MD5 check sum: 9e2d726316af3d4752eea8ab0afbb951
     Pseudo is Norm-conserving + core correction, Zval =  4.0
     Generated using ONCVPSP code by D. R. Hamann
     Using radial grid of 1510 points,  6 beta functions with: 
                l(1) =   0
                l(2) =   0
                l(3) =   1
                l(4) =   1
                l(5) =   2
                l(6) =   2

     Mode symmetry, C_3v (3m)   point group:


     Atomic displacements:
     There are    4 irreducible representations

     Representation     1      1 modes -  To be done

     Representation     2      1 modes -  To be done

     Representation     3      2 modes -  To be done

     Representation     4      2 modes -  To be done



     Alpha used in Ewald sum =   2.8000
     PHONON       :   1m44.53s CPU   2m 1.74s WALL



     Representation #   1 mode #   1

     Self-consistent Calculation

      iter #   1 total cpu time :   122.9 secs   av.it.:   6.5
      thresh= 1.000E-02 alpha_mix =  0.700 |ddv_scf|^2 =  6.824E-05

      iter #   2 total cpu time :   124.6 secs   av.it.:   9.9
      thresh= 8.261E-04 alpha_mix =  0.700 |ddv_scf|^2 =  5.446E-04

      iter #   3 total cpu time :   126.0 secs   av.it.:   8.4
      thresh= 2.334E-03 alpha_mix =  0.700 |ddv_scf|^2 =  1.003E-07

      iter #   4 total cpu time :   127.6 secs   av.it.:  10.0
      thresh= 3.166E-05 alpha_mix =  0.700 |ddv_scf|^2 =  2.038E-09

      iter #   5 total cpu time :   129.2 secs   av.it.:  10.0
      thresh= 4.514E-06 alpha_mix =  0.700 |ddv_scf|^2 =  2.149E-11

      iter #   6 total cpu time :   130.9 secs   av.it.:  10.5
      thresh= 4.635E-07 alpha_mix =  0.700 |ddv_scf|^2 =  1.828E-12

      iter #   7 total cpu time :   132.6 secs   av.it.:  10.5
      thresh= 1.352E-07 alpha_mix =  0.700 |ddv_scf|^2 =  1.742E-13

      iter #   8 total cpu time :   134.4 secs   av.it.:  10.1
      thresh= 4.174E-08 alpha_mix =  0.700 |ddv_scf|^2 =  8.452E-13

      iter #   9 total cpu time :   135.9 secs   av.it.:   8.9
      thresh= 9.193E-08 alpha_mix =  0.700 |ddv_scf|^2 =  1.863E-14

      iter #  10 total cpu time :   137.4 secs   av.it.:   8.9
      thresh= 1.365E-08 alpha_mix =  0.700 |ddv_scf|^2 =  1.673E-16

     End of self-consistent calculation

     Convergence has been achieved 


     Representation #   2 mode #   2

     Self-consistent Calculation

      iter #   1 total cpu time :   139.3 secs   av.it.:   6.5
      thresh= 1.000E-02 alpha_mix =  0.700 |ddv_scf|^2 =  6.824E-05

      iter #   2 total cpu time :   140.9 secs   av.it.:   9.9
      thresh= 8.261E-04 alpha_mix =  0.700 |ddv_scf|^2 =  5.446E-04

      iter #   3 total cpu time :   142.4 secs   av.it.:   8.4
      thresh= 2.334E-03 alpha_mix =  0.700 |ddv_scf|^2 =  1.003E-07

      iter #   4 total cpu time :   144.0 secs   av.it.:  10.0
      thresh= 3.166E-05 alpha_mix =  0.700 |ddv_scf|^2 =  2.038E-09

      iter #   5 total cpu time :   146.1 secs   av.it.:  10.0
      thresh= 4.514E-06 alpha_mix =  0.700 |ddv_scf|^2 =  2.149E-11

      iter #   6 total cpu time :   147.8 secs   av.it.:  10.5
      thresh= 4.636E-07 alpha_mix =  0.700 |ddv_scf|^2 =  1.827E-12

      iter #   7 total cpu time :   149.5 secs   av.it.:  10.5
      thresh= 1.352E-07 alpha_mix =  0.700 |ddv_scf|^2 =  1.733E-13

      iter #   8 total cpu time :   151.2 secs   av.it.:  10.1
      thresh= 4.163E-08 alpha_mix =  0.700 |ddv_scf|^2 =  8.427E-13

      iter #   9 total cpu time :   152.8 secs   av.it.:   8.9
      thresh= 9.180E-08 alpha_mix =  0.700 |ddv_scf|^2 =  1.844E-14

      iter #  10 total cpu time :   154.3 secs   av.it.:   8.9
      thresh= 1.358E-08 alpha_mix =  0.700 |ddv_scf|^2 =  1.683E-16

     End of self-consistent calculation

     Convergence has been achieved 


     Representation #   3 modes #   3   4

     Self-consistent Calculation

      iter #   1 total cpu time :   157.7 secs   av.it.:   6.1
      thresh= 1.000E-02 alpha_mix =  0.700 |ddv_scf|^2 =  3.829E-08

      iter #   2 total cpu time :   161.3 secs   av.it.:  11.5
      thresh= 1.957E-05 alpha_mix =  0.700 |ddv_scf|^2 =  2.652E-09

      iter #   3 total cpu time :   164.8 secs   av.it.:  11.4
      thresh= 5.150E-06 alpha_mix =  0.700 |ddv_scf|^2 =  3.840E-11

      iter #   4 total cpu time :   168.9 secs   av.it.:  11.5
      thresh= 6.197E-07 alpha_mix =  0.700 |ddv_scf|^2 =  3.851E-13

      iter #   5 total cpu time :   172.7 secs   av.it.:  11.5
      thresh= 6.206E-08 alpha_mix =  0.700 |ddv_scf|^2 =  7.496E-15

      iter #   6 total cpu time :   176.3 secs   av.it.:  11.7
      thresh= 8.658E-09 alpha_mix =  0.700 |ddv_scf|^2 =  5.106E-17

     End of self-consistent calculation

     Convergence has been achieved 


     Representation #   4 modes #   5   6

     Self-consistent Calculation

      iter #   1 total cpu time :   178.7 secs   av.it.:   6.1
      thresh= 1.000E-02 alpha_mix =  0.700 |ddv_scf|^2 =  3.830E-08

      iter #   2 total cpu time :   182.6 secs   av.it.:  11.5
      thresh= 1.957E-05 alpha_mix =  0.700 |ddv_scf|^2 =  2.656E-09

      iter #   3 total cpu time :   186.1 secs   av.it.:  11.3
      thresh= 5.153E-06 alpha_mix =  0.700 |ddv_scf|^2 =  3.838E-11

      iter #   4 total cpu time :   190.7 secs   av.it.:  11.5
      thresh= 6.195E-07 alpha_mix =  0.700 |ddv_scf|^2 =  3.851E-13

      iter #   5 total cpu time :   194.6 secs   av.it.:  11.5
      thresh= 6.206E-08 alpha_mix =  0.700 |ddv_scf|^2 =  7.491E-15

      iter #   6 total cpu time :   198.2 secs   av.it.:  11.7
      thresh= 8.655E-09 alpha_mix =  0.700 |ddv_scf|^2 =  5.104E-17

     End of self-consistent calculation

     Convergence has been achieved 
 
     Number of q in the star =    8
     List of q in the star:
          1  -0.333333333   0.333333333  -0.333333333
          2   0.333333333   0.333333333   0.333333333
          3  -0.333333333  -0.333333333  -0.333333333
          4   0.333333333  -0.333333333   0.333333333
          5   0.333333333  -0.333333333  -0.333333333
          6   0.333333333   0.333333333  -0.333333333
          7  -0.333333333  -0.333333333   0.333333333
          8  -0.333333333   0.333333333   0.333333333

     Diagonalizing the dynamical matrix

     q = (   -0.333333333   0.333333333  -0.333333333 ) 

 **************************************************************************
     freq (    1) =       3.044091 [THz] =     101.539948 [cm-1]
     freq (    2) =       3.044091 [THz] =     101.539948 [cm-1]
     freq (    3) =       8.747739 [THz] =     291.793151 [cm-1]
     freq (    4) =      13.857216 [THz] =     462.226956 [cm-1]
     freq (    5) =      14.763297 [THz] =     492.450572 [cm-1]
     freq (    6) =      14.763297 [THz] =     492.450572 [cm-1]
 **************************************************************************

     Mode symmetry, C_3v (3m)   point group:

     freq (   1-   2) =        101.5  [cm-1]   --> E    L_3           
     freq (   3-   3) =        291.8  [cm-1]   --> A_1  L_1           
     freq (   4-   4) =        462.2  [cm-1]   --> A_1  L_1           
     freq (   5-   6) =        492.5  [cm-1]   --> E    L_3           

     Calculation of q =    0.5000000  -0.5000000   0.5000000
 
     Parallelization info
     --------------------
     sticks:   dense  smooth     PW     G-vecs:    dense   smooth      PW
     Min          62      62     20                 1303     1303     250
     Max          63      63     22                 1306     1306     252
     Sum        1003    1003    337                20875    20875    4015
 
     Using Slab Decomposition
 

     Title: 
     default                                                                    


     bravais-lattice index     =            2
     lattice parameter (alat)  =      10.1899  a.u.
     unit-cell volume          =     264.5151 (a.u.)^3
     number of atoms/cell      =            2
     number of atomic types    =            1
     number of electrons       =         8.00
     number of Kohn-Sham states=            4
     kinetic-energy cutoff     =      70.0000  Ry
     charge density cutoff     =     280.0000  Ry
     Exchange-correlation= PW
                           (   1   4   0   0   0   0   0)

     celldm(1)=  10.189905  celldm(2)=   0.000000  celldm(3)=   0.000000
     celldm(4)=   0.000000  celldm(5)=   0.000000  celldm(6)=   0.000000

     crystal axes: (cart. coord. in units of alat)
               a(1) = (  -0.500000   0.000000   0.500000 )  
               a(2) = (   0.000000   0.500000   0.500000 )  
               a(3) = (  -0.500000   0.500000   0.000000 )  

     reciprocal axes: (cart. coord. in units 2 pi/alat)
               b(1) = ( -1.000000 -1.000000  1.000000 )  
               b(2) = (  1.000000  1.000000  1.000000 )  
               b(3) = ( -1.000000  1.000000 -1.000000 )  


     PseudoPot. # 1 for Si read from file:
     ./pseudos/Si.nc.UPF
     MD5 check sum: 9e2d726316af3d4752eea8ab0afbb951
     Pseudo is Norm-conserving + core correction, Zval =  4.0
     Generated using ONCVPSP code by D. R. Hamann
     Using radial grid of 1510 points,  6 beta functions with: 
                l(1) =   0
                l(2) =   0
                l(3) =   1
                l(4) =   1
                l(5) =   2
                l(6) =   2

     atomic species   valence    mass     pseudopotential
        Si             4.00    28.08550     Si( 1.00)

     48 Sym. Ops., with inversion, found



   Cartesian axes

     site n.     atom                  positions (alat units)
         1           Si  tau(   1) = (   0.0000000   0.0000000   0.0000000  )
         2           Si  tau(   2) = (  -0.2500000   0.2500000   0.2500000  )

     number of k points=   182

     Number of k-points >= 100: set verbosity='high' to print them.

     Dense  grid:    20875 G-vectors     FFT dimensions: (  40,  40,  40)

     Estimated max dynamical RAM per process >       2.07 MB

     Estimated total dynamical RAM >      33.08 MB

     The potential is recalculated from file :
     /fastscratch/tsievers/QE_TMP_DIR/_ph0/silicon_ph_bench_nd_9_n_procs_16_2.save/charge-density

     Starting wfcs are    8 atomic wfcs

     Band Structure Calculation
     Davidson diagonalization with overlap

     ethr =  1.25E-10,  avg # of iterations = 12.9

     total cpu time spent up to now is       25.4 secs

     End of band structure calculation

     Number of k-points >= 100: set verbosity='high' to print the bands.

     highest occupied level (ev):     6.1106

     Writing config to output data dir /fastscratch/tsievers/QE_TMP_DIR/_ph0/silicon_ph_bench_nd_9_n_procs_16_2.save/

     default                                                                    

     bravais-lattice index     =            2
     lattice parameter (alat)  =      10.1899  a.u.
     unit-cell volume          =     264.5151 (a.u.)^3
     number of atoms/cell      =            2
     number of atomic types    =            1
     kinetic-energy cut-off    =      70.0000  Ry
     charge density cut-off    =     280.0000  Ry
     convergence threshold     =      1.0E-15
     beta                      =       0.7000
     number of iterations used =            4
     Exchange-correlation= PW
                           (   1   4   0   0   0   0   0)


     celldm(1)=   10.18990  celldm(2)=    0.00000  celldm(3)=    0.00000
     celldm(4)=    0.00000  celldm(5)=    0.00000  celldm(6)=    0.00000

     crystal axes: (cart. coord. in units of alat)
               a(1) = ( -0.5000  0.0000  0.5000 )  
               a(2) = (  0.0000  0.5000  0.5000 )  
               a(3) = ( -0.5000  0.5000  0.0000 )  

     reciprocal axes: (cart. coord. in units 2 pi/alat)
               b(1) = ( -1.0000 -1.0000  1.0000 )  
               b(2) = (  1.0000  1.0000  1.0000 )  
               b(3) = ( -1.0000  1.0000 -1.0000 )  


     Atoms inside the unit cell: 

     Cartesian axes

     site n.  atom      mass           positions (alat units)
        1     Si  28.0855   tau(    1) = (    0.00000    0.00000    0.00000  )
        2     Si  28.0855   tau(    2) = (   -0.25000    0.25000    0.25000  )

     Computing dynamical matrix for 
                    q = (   0.5000000  -0.5000000   0.5000000 )
 
     13 Sym.Ops. (with q -> -q+G )


     G cutoff =  736.4420  (   1306 G-vectors)     FFT grid: ( 40, 40, 40)
     number of k points=   182

     PseudoPot. # 1 for Si read from file:
     ./pseudos/Si.nc.UPF
     MD5 check sum: 9e2d726316af3d4752eea8ab0afbb951
     Pseudo is Norm-conserving + core correction, Zval =  4.0
     Generated using ONCVPSP code by D. R. Hamann
     Using radial grid of 1510 points,  6 beta functions with: 
                l(1) =   0
                l(2) =   0
                l(3) =   1
                l(4) =   1
                l(5) =   2
                l(6) =   2


     Atomic displacements:
     There are    4 irreducible representations

     Representation     1      1 modes -  To be done

     Representation     2      1 modes -  To be done

     Representation     3      2 modes -  To be done

     Representation     4      2 modes -  To be done



     Alpha used in Ewald sum =   2.8000
     PHONON       :   2m57.56s CPU   3m24.39s WALL



     Representation #   1 mode #   1

     Self-consistent Calculation

      iter #   1 total cpu time :   205.0 secs   av.it.:   5.8
      thresh= 1.000E-02 alpha_mix =  0.700 |ddv_scf|^2 =  2.183E-06

      iter #   2 total cpu time :   205.9 secs   av.it.:  10.1
      thresh= 1.477E-04 alpha_mix =  0.700 |ddv_scf|^2 =  2.014E-06

      iter #   3 total cpu time :   206.7 secs   av.it.:   9.4
      thresh= 1.419E-04 alpha_mix =  0.700 |ddv_scf|^2 =  2.688E-10

      iter #   4 total cpu time :   207.6 secs   av.it.:  10.2
      thresh= 1.640E-06 alpha_mix =  0.700 |ddv_scf|^2 =  4.624E-12

      iter #   5 total cpu time :   208.6 secs   av.it.:  10.0
      thresh= 2.150E-07 alpha_mix =  0.700 |ddv_scf|^2 =  6.628E-14

      iter #   6 total cpu time :   209.4 secs   av.it.:  10.0
      thresh= 2.574E-08 alpha_mix =  0.700 |ddv_scf|^2 =  8.691E-16

     End of self-consistent calculation

     Convergence has been achieved 


     Representation #   2 mode #   2

     Self-consistent Calculation

      iter #   1 total cpu time :   210.1 secs   av.it.:   6.7
      thresh= 1.000E-02 alpha_mix =  0.700 |ddv_scf|^2 =  3.335E-05

      iter #   2 total cpu time :   211.0 secs   av.it.:  10.2
      thresh= 5.775E-04 alpha_mix =  0.700 |ddv_scf|^2 =  1.090E-04

      iter #   3 total cpu time :   211.8 secs   av.it.:   9.2
      thresh= 1.044E-03 alpha_mix =  0.700 |ddv_scf|^2 =  6.446E-09

      iter #   4 total cpu time :   212.7 secs   av.it.:   9.9
      thresh= 8.028E-06 alpha_mix =  0.700 |ddv_scf|^2 =  1.352E-10

      iter #   5 total cpu time :   215.2 secs   av.it.:  10.5
      thresh= 1.163E-06 alpha_mix =  0.700 |ddv_scf|^2 =  6.723E-12

      iter #   6 total cpu time :   216.1 secs   av.it.:  10.2
      thresh= 2.593E-07 alpha_mix =  0.700 |ddv_scf|^2 =  1.881E-13

      iter #   7 total cpu time :   216.9 secs   av.it.:   9.5
      thresh= 4.337E-08 alpha_mix =  0.700 |ddv_scf|^2 =  4.063E-17

     End of self-consistent calculation

     Convergence has been achieved 


     Representation #   3 modes #   3   4

     Self-consistent Calculation

      iter #   1 total cpu time :   218.2 secs   av.it.:   6.1
      thresh= 1.000E-02 alpha_mix =  0.700 |ddv_scf|^2 =  7.706E-08

      iter #   2 total cpu time :   220.4 secs   av.it.:  11.4
      thresh= 2.776E-05 alpha_mix =  0.700 |ddv_scf|^2 =  6.532E-09

      iter #   3 total cpu time :   222.3 secs   av.it.:  11.2
      thresh= 8.082E-06 alpha_mix =  0.700 |ddv_scf|^2 =  4.374E-11

      iter #   4 total cpu time :   224.1 secs   av.it.:  11.3
      thresh= 6.614E-07 alpha_mix =  0.700 |ddv_scf|^2 =  4.891E-14

      iter #   5 total cpu time :   225.9 secs   av.it.:  11.6
      thresh= 2.212E-08 alpha_mix =  0.700 |ddv_scf|^2 =  6.440E-16

     End of self-consistent calculation

     Convergence has been achieved 


     Representation #   4 modes #   5   6

     Self-consistent Calculation

      iter #   1 total cpu time :   227.4 secs   av.it.:   5.5
      thresh= 1.000E-02 alpha_mix =  0.700 |ddv_scf|^2 =  8.747E-09

      iter #   2 total cpu time :   229.2 secs   av.it.:  11.4
      thresh= 9.353E-06 alpha_mix =  0.700 |ddv_scf|^2 =  2.293E-10

      iter #   3 total cpu time :   231.1 secs   av.it.:  11.4
      thresh= 1.514E-06 alpha_mix =  0.700 |ddv_scf|^2 =  1.410E-11

      iter #   4 total cpu time :   233.0 secs   av.it.:  11.4
      thresh= 3.755E-07 alpha_mix =  0.700 |ddv_scf|^2 =  6.029E-14

      iter #   5 total cpu time :   234.8 secs   av.it.:  11.3
      thresh= 2.455E-08 alpha_mix =  0.700 |ddv_scf|^2 =  9.640E-16

     End of self-consistent calculation

     Convergence has been achieved 
 
     Number of q in the star =    4
     List of q in the star:
          1   0.500000000  -0.500000000   0.500000000
          2   0.500000000   0.500000000   0.500000000
          3  -0.500000000   0.500000000   0.500000000
          4   0.500000000   0.500000000  -0.500000000

     Diagonalizing the dynamical matrix

     q = (    0.500000000  -0.500000000   0.500000000 ) 

 **************************************************************************
     freq (    1) =       3.157177 [THz] =     105.312082 [cm-1]
     freq (    2) =       3.157177 [THz] =     105.312082 [cm-1]
     freq (    3) =      11.169085 [THz] =     372.560572 [cm-1]
     freq (    4) =      12.390666 [THz] =     413.308137 [cm-1]
     freq (    5) =      14.704257 [THz] =     490.481226 [cm-1]
     freq (    6) =      14.704257 [THz] =     490.481226 [cm-1]
 **************************************************************************

     Calculation of q =    0.0000000   0.3333333   0.0000000
 
     Parallelization info
     --------------------
     sticks:   dense  smooth     PW     G-vecs:    dense   smooth      PW
     Min          62      62     19                 1303     1303     231
     Max          63      63     20                 1306     1306     234
     Sum        1003    1003    313                20875    20875    3719
 
     Using Slab Decomposition
 

     Title: 
     default                                                                    


     bravais-lattice index     =            2
     lattice parameter (alat)  =      10.1899  a.u.
     unit-cell volume          =     264.5151 (a.u.)^3
     number of atoms/cell      =            2
     number of atomic types    =            1
     number of electrons       =         8.00
     number of Kohn-Sham states=            4
     kinetic-energy cutoff     =      70.0000  Ry
     charge density cutoff     =     280.0000  Ry
     Exchange-correlation= PW
                           (   1   4   0   0   0   0   0)

     celldm(1)=  10.189905  celldm(2)=   0.000000  celldm(3)=   0.000000
     celldm(4)=   0.000000  celldm(5)=   0.000000  celldm(6)=   0.000000

     crystal axes: (cart. coord. in units of alat)
               a(1) = (  -0.500000   0.000000   0.500000 )  
               a(2) = (   0.000000   0.500000   0.500000 )  
               a(3) = (  -0.500000   0.500000   0.000000 )  

     reciprocal axes: (cart. coord. in units 2 pi/alat)
               b(1) = ( -1.000000 -1.000000  1.000000 )  
               b(2) = (  1.000000  1.000000  1.000000 )  
               b(3) = ( -1.000000  1.000000 -1.000000 )  


     PseudoPot. # 1 for Si read from file:
     ./pseudos/Si.nc.UPF
     MD5 check sum: 9e2d726316af3d4752eea8ab0afbb951
     Pseudo is Norm-conserving + core correction, Zval =  4.0
     Generated using ONCVPSP code by D. R. Hamann
     Using radial grid of 1510 points,  6 beta functions with: 
                l(1) =   0
                l(2) =   0
                l(3) =   1
                l(4) =   1
                l(5) =   2
                l(6) =   2

     atomic species   valence    mass     pseudopotential
        Si             4.00    28.08550     Si( 1.00)

     48 Sym. Ops., with inversion, found



   Cartesian axes

     site n.     atom                  positions (alat units)
         1           Si  tau(   1) = (   0.0000000   0.0000000   0.0000000  )
         2           Si  tau(   2) = (  -0.2500000   0.2500000   0.2500000  )

     number of k points=   252

     Number of k-points >= 100: set verbosity='high' to print them.

     Dense  grid:    20875 G-vectors     FFT dimensions: (  40,  40,  40)

     Estimated max dynamical RAM per process >       2.04 MB

     Estimated total dynamical RAM >      32.65 MB

     The potential is recalculated from file :
     /fastscratch/tsievers/QE_TMP_DIR/_ph0/silicon_ph_bench_nd_9_n_procs_16_2.save/charge-density

     Starting wfcs are    8 atomic wfcs

     Band Structure Calculation
     Davidson diagonalization with overlap

     ethr =  1.25E-10,  avg # of iterations = 12.8

     total cpu time spent up to now is       32.3 secs

     End of band structure calculation

     Number of k-points >= 100: set verbosity='high' to print the bands.

     highest occupied level (ev):     6.1106

     Writing config to output data dir /fastscratch/tsievers/QE_TMP_DIR/_ph0/silicon_ph_bench_nd_9_n_procs_16_2.save/

     default                                                                    

     bravais-lattice index     =            2
     lattice parameter (alat)  =      10.1899  a.u.
     unit-cell volume          =     264.5151 (a.u.)^3
     number of atoms/cell      =            2
     number of atomic types    =            1
     kinetic-energy cut-off    =      70.0000  Ry
     charge density cut-off    =     280.0000  Ry
     convergence threshold     =      1.0E-15
     beta                      =       0.7000
     number of iterations used =            4
     Exchange-correlation= PW
                           (   1   4   0   0   0   0   0)


     celldm(1)=   10.18990  celldm(2)=    0.00000  celldm(3)=    0.00000
     celldm(4)=    0.00000  celldm(5)=    0.00000  celldm(6)=    0.00000

     crystal axes: (cart. coord. in units of alat)
               a(1) = ( -0.5000  0.0000  0.5000 )  
               a(2) = (  0.0000  0.5000  0.5000 )  
               a(3) = ( -0.5000  0.5000  0.0000 )  

     reciprocal axes: (cart. coord. in units 2 pi/alat)
               b(1) = ( -1.0000 -1.0000  1.0000 )  
               b(2) = (  1.0000  1.0000  1.0000 )  
               b(3) = ( -1.0000  1.0000 -1.0000 )  


     Atoms inside the unit cell: 

     Cartesian axes

     site n.  atom      mass           positions (alat units)
        1     Si  28.0855   tau(    1) = (    0.00000    0.00000    0.00000  )
        2     Si  28.0855   tau(    2) = (   -0.25000    0.25000    0.25000  )

     Computing dynamical matrix for 
                    q = (   0.0000000   0.3333333   0.0000000 )
 
      8 Sym.Ops. (no q -> -q+G )


     G cutoff =  736.4420  (   1306 G-vectors)     FFT grid: ( 40, 40, 40)
     number of k points=   252

     PseudoPot. # 1 for Si read from file:
     ./pseudos/Si.nc.UPF
     MD5 check sum: 9e2d726316af3d4752eea8ab0afbb951
     Pseudo is Norm-conserving + core correction, Zval =  4.0
     Generated using ONCVPSP code by D. R. Hamann
     Using radial grid of 1510 points,  6 beta functions with: 
                l(1) =   0
                l(2) =   0
                l(3) =   1
                l(4) =   1
                l(5) =   2
                l(6) =   2

     Mode symmetry, C_4v (4mm)  point group:


     Atomic displacements:
     There are    4 irreducible representations

     Representation     1      1 modes -  To be done

     Representation     2      1 modes -  To be done

     Representation     3      2 modes -  To be done

     Representation     4      2 modes -  To be done



     Alpha used in Ewald sum =   2.8000
     PHONON       :   3m30.96s CPU   4m 3.47s WALL



     Representation #   1 mode #   1

     Self-consistent Calculation

      iter #   1 total cpu time :   244.3 secs   av.it.:   6.8
      thresh= 1.000E-02 alpha_mix =  0.700 |ddv_scf|^2 =  1.447E-03

      iter #   2 total cpu time :   245.4 secs   av.it.:   9.2
      thresh= 3.805E-03 alpha_mix =  0.700 |ddv_scf|^2 =  4.414E-02

      iter #   3 total cpu time :   246.6 secs   av.it.:   8.0
      thresh= 1.000E-02 alpha_mix =  0.700 |ddv_scf|^2 =  4.053E-08

      iter #   4 total cpu time :   247.6 secs   av.it.:   9.1
      thresh= 2.013E-05 alpha_mix =  0.700 |ddv_scf|^2 =  1.935E-09

      iter #   5 total cpu time :   249.4 secs   av.it.:   8.7
      thresh= 4.399E-06 alpha_mix =  0.700 |ddv_scf|^2 =  6.290E-10

      iter #   6 total cpu time :   250.6 secs   av.it.:   8.3
      thresh= 2.508E-06 alpha_mix =  0.700 |ddv_scf|^2 =  8.524E-13

      iter #   7 total cpu time :   251.6 secs   av.it.:   8.6
      thresh= 9.233E-08 alpha_mix =  0.700 |ddv_scf|^2 =  1.929E-14

      iter #   8 total cpu time :   252.6 secs   av.it.:   8.5
      thresh= 1.389E-08 alpha_mix =  0.700 |ddv_scf|^2 =  2.400E-16

     End of self-consistent calculation

     Convergence has been achieved 


     Representation #   2 mode #   2

     Self-consistent Calculation

      iter #   1 total cpu time :   253.5 secs   av.it.:   5.9
      thresh= 1.000E-02 alpha_mix =  0.700 |ddv_scf|^2 =  2.210E-07

      iter #   2 total cpu time :   254.7 secs   av.it.:  10.6
      thresh= 4.701E-05 alpha_mix =  0.700 |ddv_scf|^2 =  3.573E-08

      iter #   3 total cpu time :   256.2 secs   av.it.:  10.3
      thresh= 1.890E-05 alpha_mix =  0.700 |ddv_scf|^2 =  4.520E-10

      iter #   4 total cpu time :   257.4 secs   av.it.:  10.4
      thresh= 2.126E-06 alpha_mix =  0.700 |ddv_scf|^2 =  1.877E-11

      iter #   5 total cpu time :   258.6 secs   av.it.:  10.5
      thresh= 4.333E-07 alpha_mix =  0.700 |ddv_scf|^2 =  4.276E-14

      iter #   6 total cpu time :   259.8 secs   av.it.:  10.6
      thresh= 2.068E-08 alpha_mix =  0.700 |ddv_scf|^2 =  8.546E-16

     End of self-consistent calculation

     Convergence has been achieved 


     Representation #   3 modes #   3   4

     Self-consistent Calculation

      iter #   1 total cpu time :   261.4 secs   av.it.:   6.1
      thresh= 1.000E-02 alpha_mix =  0.700 |ddv_scf|^2 =  3.999E-08

      iter #   2 total cpu time :   264.0 secs   av.it.:  11.5
      thresh= 2.000E-05 alpha_mix =  0.700 |ddv_scf|^2 =  3.645E-09

      iter #   3 total cpu time :   267.5 secs   av.it.:  11.3
      thresh= 6.038E-06 alpha_mix =  0.700 |ddv_scf|^2 =  4.249E-11

      iter #   4 total cpu time :   270.3 secs   av.it.:  11.4
      thresh= 6.518E-07 alpha_mix =  0.700 |ddv_scf|^2 =  4.779E-13

      iter #   5 total cpu time :   272.8 secs   av.it.:  11.4
      thresh= 6.913E-08 alpha_mix =  0.700 |ddv_scf|^2 =  7.934E-15

      iter #   6 total cpu time :   276.1 secs   av.it.:  11.8
      thresh= 8.907E-09 alpha_mix =  0.700 |ddv_scf|^2 =  3.231E-17

     End of self-consistent calculation

     Convergence has been achieved 


     Representation #   4 modes #   5   6

     Self-consistent Calculation

      iter #   1 total cpu time :   277.8 secs   av.it.:   6.0
      thresh= 1.000E-02 alpha_mix =  0.700 |ddv_scf|^2 =  5.273E-08

      iter #   2 total cpu time :   280.4 secs   av.it.:  11.4
      thresh= 2.296E-05 alpha_mix =  0.700 |ddv_scf|^2 =  4.972E-09

      iter #   3 total cpu time :   282.8 secs   av.it.:  11.1
      thresh= 7.051E-06 alpha_mix =  0.700 |ddv_scf|^2 =  4.498E-11

      iter #   4 total cpu time :   285.3 secs   av.it.:  11.4
      thresh= 6.707E-07 alpha_mix =  0.700 |ddv_scf|^2 =  3.057E-13

      iter #   5 total cpu time :   287.8 secs   av.it.:  11.3
      thresh= 5.529E-08 alpha_mix =  0.700 |ddv_scf|^2 =  7.260E-15

      iter #   6 total cpu time :   290.3 secs   av.it.:  11.7
      thresh= 8.521E-09 alpha_mix =  0.700 |ddv_scf|^2 =  3.074E-17

     End of self-consistent calculation

     Convergence has been achieved 
 
     Number of q in the star =    6
     List of q in the star:
          1   0.000000000   0.333333333   0.000000000
          2   0.333333333   0.000000000   0.000000000
          3   0.000000000   0.000000000   0.333333333
          4   0.000000000  -0.333333333   0.000000000
          5  -0.333333333   0.000000000   0.000000000
          6   0.000000000   0.000000000  -0.333333333

     Diagonalizing the dynamical matrix

     q = (    0.000000000   0.333333333   0.000000000 ) 

 **************************************************************************
     freq (    1) =       2.948439 [THz] =      98.349328 [cm-1]
     freq (    2) =       2.948439 [THz] =      98.349328 [cm-1]
     freq (    3) =       4.953323 [THz] =     165.225064 [cm-1]
     freq (    4) =      14.670275 [THz] =     489.347684 [cm-1]
     freq (    5) =      14.670275 [THz] =     489.347684 [cm-1]
     freq (    6) =      15.142887 [THz] =     505.112348 [cm-1]
 **************************************************************************

     Mode symmetry, C_4v (4mm)  point group:

     freq (   1-   2) =         98.3  [cm-1]   --> E    G_5 D_5       
     freq (   3-   3) =        165.2  [cm-1]   --> A_1  G_1 D_1       
     freq (   4-   5) =        489.3  [cm-1]   --> E    G_5 D_5       
     freq (   6-   6) =        505.1  [cm-1]   --> B_2  G_4 D_2'      

     Calculation of q =   -0.1666667   0.5000000  -0.1666667
 
     Parallelization info
     --------------------
     sticks:   dense  smooth     PW     G-vecs:    dense   smooth      PW
     Min          62      62     19                 1303     1303     237
     Max          63      63     20                 1306     1306     242
     Sum        1003    1003    313                20875    20875    3839
 
     Using Slab Decomposition
 

     Title: 
     default                                                                    


     bravais-lattice index     =            2
     lattice parameter (alat)  =      10.1899  a.u.
     unit-cell volume          =     264.5151 (a.u.)^3
     number of atoms/cell      =            2
     number of atomic types    =            1
     number of electrons       =         8.00
     number of Kohn-Sham states=            4
     kinetic-energy cutoff     =      70.0000  Ry
     charge density cutoff     =     280.0000  Ry
     Exchange-correlation= PW
                           (   1   4   0   0   0   0   0)

     celldm(1)=  10.189905  celldm(2)=   0.000000  celldm(3)=   0.000000
     celldm(4)=   0.000000  celldm(5)=   0.000000  celldm(6)=   0.000000

     crystal axes: (cart. coord. in units of alat)
               a(1) = (  -0.500000   0.000000   0.500000 )  
               a(2) = (   0.000000   0.500000   0.500000 )  
               a(3) = (  -0.500000   0.500000   0.000000 )  

     reciprocal axes: (cart. coord. in units 2 pi/alat)
               b(1) = ( -1.000000 -1.000000  1.000000 )  
               b(2) = (  1.000000  1.000000  1.000000 )  
               b(3) = ( -1.000000  1.000000 -1.000000 )  


     PseudoPot. # 1 for Si read from file:
     ./pseudos/Si.nc.UPF
     MD5 check sum: 9e2d726316af3d4752eea8ab0afbb951
     Pseudo is Norm-conserving + core correction, Zval =  4.0
     Generated using ONCVPSP code by D. R. Hamann
     Using radial grid of 1510 points,  6 beta functions with: 
                l(1) =   0
                l(2) =   0
                l(3) =   1
                l(4) =   1
                l(5) =   2
                l(6) =   2

     atomic species   valence    mass     pseudopotential
        Si             4.00    28.08550     Si( 1.00)

     48 Sym. Ops., with inversion, found



   Cartesian axes

     site n.     atom                  positions (alat units)
         1           Si  tau(   1) = (   0.0000000   0.0000000   0.0000000  )
         2           Si  tau(   2) = (  -0.2500000   0.2500000   0.2500000  )

     number of k points=   936

     Number of k-points >= 100: set verbosity='high' to print them.

     Dense  grid:    20875 G-vectors     FFT dimensions: (  40,  40,  40)

     Estimated max dynamical RAM per process >       2.05 MB

     Estimated total dynamical RAM >      32.83 MB

     The potential is recalculated from file :
     /fastscratch/tsievers/QE_TMP_DIR/_ph0/silicon_ph_bench_nd_9_n_procs_16_2.save/charge-density

     Starting wfcs are    8 atomic wfcs

     Band Structure Calculation
     Davidson diagonalization with overlap

     ethr =  1.25E-10,  avg # of iterations = 12.8

     total cpu time spent up to now is       58.7 secs

     End of band structure calculation

     Number of k-points >= 100: set verbosity='high' to print the bands.

     highest occupied level (ev):     6.1106

     Writing config to output data dir /fastscratch/tsievers/QE_TMP_DIR/_ph0/silicon_ph_bench_nd_9_n_procs_16_2.save/

     default                                                                    

     bravais-lattice index     =            2
     lattice parameter (alat)  =      10.1899  a.u.
     unit-cell volume          =     264.5151 (a.u.)^3
     number of atoms/cell      =            2
     number of atomic types    =            1
     kinetic-energy cut-off    =      70.0000  Ry
     charge density cut-off    =     280.0000  Ry
     convergence threshold     =      1.0E-15
     beta                      =       0.7000
     number of iterations used =            4
     Exchange-correlation= PW
                           (   1   4   0   0   0   0   0)


     celldm(1)=   10.18990  celldm(2)=    0.00000  celldm(3)=    0.00000
     celldm(4)=    0.00000  celldm(5)=    0.00000  celldm(6)=    0.00000

     crystal axes: (cart. coord. in units of alat)
               a(1) = ( -0.5000  0.0000  0.5000 )  
               a(2) = (  0.0000  0.5000  0.5000 )  
               a(3) = ( -0.5000  0.5000  0.0000 )  

     reciprocal axes: (cart. coord. in units 2 pi/alat)
               b(1) = ( -1.0000 -1.0000  1.0000 )  
               b(2) = (  1.0000  1.0000  1.0000 )  
               b(3) = ( -1.0000  1.0000 -1.0000 )  


     Atoms inside the unit cell: 

     Cartesian axes

     site n.  atom      mass           positions (alat units)
[...]
        Si             4.00    28.08550     Si( 1.00)

     48 Sym. Ops., with inversion, found



   Cartesian axes

     site n.     atom                  positions (alat units)
         1           Si  tau(   1) = (   0.0000000   0.0000000   0.0000000  )
         2           Si  tau(   2) = (  -0.2500000   0.2500000   0.2500000  )

     number of k points=   864

     Number of k-points >= 100: set verbosity='high' to print them.

     Dense  grid:    20875 G-vectors     FFT dimensions: (  40,  40,  40)

     Estimated max dynamical RAM per process >       2.07 MB

     Estimated total dynamical RAM >      33.18 MB

     The potential is recalculated from file :
     /fastscratch/tsievers/QE_TMP_DIR/_ph0/silicon_ph_bench_nd_9_n_procs_16_2.save/charge-density

     Starting wfcs are    8 atomic wfcs

     Band Structure Calculation
     Davidson diagonalization with overlap

     ethr =  1.25E-10,  avg # of iterations = 12.8

     total cpu time spent up to now is      223.8 secs

     End of band structure calculation

     Number of k-points >= 100: set verbosity='high' to print the bands.

     highest occupied level (ev):     6.1106

     Writing config to output data dir /fastscratch/tsievers/QE_TMP_DIR/_ph0/silicon_ph_bench_nd_9_n_procs_16_2.save/

     default                                                                    

     bravais-lattice index     =            2
     lattice parameter (alat)  =      10.1899  a.u.
     unit-cell volume          =     264.5151 (a.u.)^3
     number of atoms/cell      =            2
     number of atomic types    =            1
     kinetic-energy cut-off    =      70.0000  Ry
     charge density cut-off    =     280.0000  Ry
     convergence threshold     =      1.0E-15
     beta                      =       0.7000
     number of iterations used =            4
     Exchange-correlation= PW
                           (   1   4   0   0   0   0   0)


     celldm(1)=   10.18990  celldm(2)=    0.00000  celldm(3)=    0.00000
     celldm(4)=    0.00000  celldm(5)=    0.00000  celldm(6)=    0.00000

     crystal axes: (cart. coord. in units of alat)
               a(1) = ( -0.5000  0.0000  0.5000 )  
               a(2) = (  0.0000  0.5000  0.5000 )  
               a(3) = ( -0.5000  0.5000  0.0000 )  

     reciprocal axes: (cart. coord. in units 2 pi/alat)
               b(1) = ( -1.0000 -1.0000  1.0000 )  
               b(2) = (  1.0000  1.0000  1.0000 )  
               b(3) = ( -1.0000  1.0000 -1.0000 )  


     Atoms inside the unit cell: 

     Cartesian axes

     site n.  atom      mass           positions (alat units)
        1     Si  28.0855   tau(    1) = (    0.00000    0.00000    0.00000  )
        2     Si  28.0855   tau(    2) = (   -0.25000    0.25000    0.25000  )

     Computing dynamical matrix for 
                    q = (   0.5000000  -0.1666667   0.8333333 )
 
      2 Sym.Ops. (no q -> -q+G )


     G cutoff =  736.4420  (   1306 G-vectors)     FFT grid: ( 40, 40, 40)
     number of k points=   864

     PseudoPot. # 1 for Si read from file:
     ./pseudos/Si.nc.UPF
     MD5 check sum: 9e2d726316af3d4752eea8ab0afbb951
     Pseudo is Norm-conserving + core correction, Zval =  4.0
     Generated using ONCVPSP code by D. R. Hamann
     Using radial grid of 1510 points,  6 beta functions with: 
                l(1) =   0
                l(2) =   0
                l(3) =   1
                l(4) =   1
                l(5) =   2
                l(6) =   2


     Atomic displacements:
     There are    6 irreducible representations

     Representation     1      1 modes -  To be done

     Representation     2      1 modes -  To be done

     Representation     3      1 modes -  To be done

     Representation     4      1 modes -  To be done

     Representation     5      1 modes -  To be done

     Representation     6      1 modes -  To be done



     Alpha used in Ewald sum =   2.8000
     PHONON       :  27m52.54s CPU  31m 6.76s WALL



     Representation #   1 mode #   1

     Self-consistent Calculation

      iter #   1 total cpu time :  1869.5 secs   av.it.:   6.1
      thresh= 1.000E-02 alpha_mix =  0.700 |ddv_scf|^2 =  1.389E-06

      iter #   2 total cpu time :  1873.5 secs   av.it.:  10.8
      thresh= 1.179E-04 alpha_mix =  0.700 |ddv_scf|^2 =  2.250E-06

      iter #   3 total cpu time :  1877.2 secs   av.it.:   9.8
      thresh= 1.500E-04 alpha_mix =  0.700 |ddv_scf|^2 =  5.093E-09

      iter #   4 total cpu time :  1881.2 secs   av.it.:  10.5
      thresh= 7.137E-06 alpha_mix =  0.700 |ddv_scf|^2 =  1.595E-10

      iter #   5 total cpu time :  1885.2 secs   av.it.:  10.7
      thresh= 1.263E-06 alpha_mix =  0.700 |ddv_scf|^2 =  1.583E-12

      iter #   6 total cpu time :  1889.7 secs   av.it.:  10.7
      thresh= 1.258E-07 alpha_mix =  0.700 |ddv_scf|^2 =  2.701E-14

      iter #   7 total cpu time :  1894.1 secs   av.it.:  10.8
      thresh= 1.644E-08 alpha_mix =  0.700 |ddv_scf|^2 =  1.126E-15

      iter #   8 total cpu time :  1898.3 secs   av.it.:  10.8
      thresh= 3.355E-09 alpha_mix =  0.700 |ddv_scf|^2 =  3.569E-16

     End of self-consistent calculation

     Convergence has been achieved 


     Representation #   2 mode #   2

     Self-consistent Calculation

      iter #   1 total cpu time :  1901.3 secs   av.it.:   6.5
      thresh= 1.000E-02 alpha_mix =  0.700 |ddv_scf|^2 =  5.353E-06

      iter #   2 total cpu time :  1906.0 secs   av.it.:  10.8
      thresh= 2.314E-04 alpha_mix =  0.700 |ddv_scf|^2 =  8.541E-06

      iter #   3 total cpu time :  1909.8 secs   av.it.:   9.9
      thresh= 2.923E-04 alpha_mix =  0.700 |ddv_scf|^2 =  1.648E-08

      iter #   4 total cpu time :  1913.9 secs   av.it.:  10.4
      thresh= 1.284E-05 alpha_mix =  0.700 |ddv_scf|^2 =  2.947E-10

      iter #   5 total cpu time :  1917.8 secs   av.it.:  10.6
      thresh= 1.717E-06 alpha_mix =  0.700 |ddv_scf|^2 =  1.627E-12

      iter #   6 total cpu time :  1921.8 secs   av.it.:  10.7
      thresh= 1.275E-07 alpha_mix =  0.700 |ddv_scf|^2 =  4.659E-14

      iter #   7 total cpu time :  1926.1 secs   av.it.:  10.7
      thresh= 2.159E-08 alpha_mix =  0.700 |ddv_scf|^2 =  5.168E-15

      iter #   8 total cpu time :  1930.0 secs   av.it.:  10.6
      thresh= 7.189E-09 alpha_mix =  0.700 |ddv_scf|^2 =  8.772E-17

     End of self-consistent calculation

     Convergence has been achieved 


     Representation #   3 mode #   3

     Self-consistent Calculation

      iter #   1 total cpu time :  1933.9 secs   av.it.:   6.3
      thresh= 1.000E-02 alpha_mix =  0.700 |ddv_scf|^2 =  3.257E-06

      iter #   2 total cpu time :  1937.9 secs   av.it.:  10.8
      thresh= 1.805E-04 alpha_mix =  0.700 |ddv_scf|^2 =  5.354E-06

      iter #   3 total cpu time :  1941.7 secs   av.it.:   9.9
      thresh= 2.314E-04 alpha_mix =  0.700 |ddv_scf|^2 =  6.867E-09

      iter #   4 total cpu time :  1945.6 secs   av.it.:  10.5
      thresh= 8.286E-06 alpha_mix =  0.700 |ddv_scf|^2 =  3.420E-10

      iter #   5 total cpu time :  1949.6 secs   av.it.:  10.6
      thresh= 1.849E-06 alpha_mix =  0.700 |ddv_scf|^2 =  4.217E-12

      iter #   6 total cpu time :  1953.6 secs   av.it.:  10.8
      thresh= 2.054E-07 alpha_mix =  0.700 |ddv_scf|^2 =  6.551E-14

      iter #   7 total cpu time :  1957.6 secs   av.it.:  10.7
      thresh= 2.560E-08 alpha_mix =  0.700 |ddv_scf|^2 =  4.976E-15

      iter #   8 total cpu time :  1961.6 secs   av.it.:  10.6
      thresh= 7.054E-09 alpha_mix =  0.700 |ddv_scf|^2 =  1.174E-16

     End of self-consistent calculation

     Convergence has been achieved 


     Representation #   4 mode #   4

     Self-consistent Calculation

      iter #   1 total cpu time :  1965.3 secs   av.it.:   6.3
      thresh= 1.000E-02 alpha_mix =  0.700 |ddv_scf|^2 =  3.337E-06

      iter #   2 total cpu time :  1969.4 secs   av.it.:  10.8
      thresh= 1.827E-04 alpha_mix =  0.700 |ddv_scf|^2 =  5.556E-06

      iter #   3 total cpu time :  1973.6 secs   av.it.:   9.8
      thresh= 2.357E-04 alpha_mix =  0.700 |ddv_scf|^2 =  8.317E-09

      iter #   4 total cpu time :  1977.5 secs   av.it.:  10.5
      thresh= 9.120E-06 alpha_mix =  0.700 |ddv_scf|^2 =  1.610E-10

      iter #   5 total cpu time :  1981.5 secs   av.it.:  10.7
      thresh= 1.269E-06 alpha_mix =  0.700 |ddv_scf|^2 =  2.142E-12

      iter #   6 total cpu time :  1985.5 secs   av.it.:  10.6
      thresh= 1.463E-07 alpha_mix =  0.700 |ddv_scf|^2 =  2.600E-14

      iter #   7 total cpu time :  1989.7 secs   av.it.:  10.8
      thresh= 1.612E-08 alpha_mix =  0.700 |ddv_scf|^2 =  1.553E-15

      iter #   8 total cpu time :  1993.7 secs   av.it.:  10.7
      thresh= 3.940E-09 alpha_mix =  0.700 |ddv_scf|^2 =  3.353E-16

     End of self-consistent calculation

     Convergence has been achieved 


     Representation #   5 mode #   5

     Self-consistent Calculation

      iter #   1 total cpu time :  1997.5 secs   av.it.:   6.6
      thresh= 1.000E-02 alpha_mix =  0.700 |ddv_scf|^2 =  3.738E-06

      iter #   2 total cpu time :  2001.7 secs   av.it.:  10.9
      thresh= 1.933E-04 alpha_mix =  0.700 |ddv_scf|^2 =  4.740E-06

      iter #   3 total cpu time :  2005.8 secs   av.it.:  10.1
      thresh= 2.177E-04 alpha_mix =  0.700 |ddv_scf|^2 =  5.424E-08

      iter #   4 total cpu time :  2009.7 secs   av.it.:  10.3
      thresh= 2.329E-05 alpha_mix =  0.700 |ddv_scf|^2 =  2.729E-10

      iter #   5 total cpu time :  2013.7 secs   av.it.:  10.7
      thresh= 1.652E-06 alpha_mix =  0.700 |ddv_scf|^2 =  6.922E-12

      iter #   6 total cpu time :  2017.7 secs   av.it.:  10.8
      thresh= 2.631E-07 alpha_mix =  0.700 |ddv_scf|^2 =  4.058E-14

      iter #   7 total cpu time :  2022.7 secs   av.it.:  10.6
      thresh= 2.014E-08 alpha_mix =  0.700 |ddv_scf|^2 =  4.610E-15

      iter #   8 total cpu time :  2027.7 secs   av.it.:  10.7
      thresh= 6.790E-09 alpha_mix =  0.700 |ddv_scf|^2 =  3.673E-16

     End of self-consistent calculation

     Convergence has been achieved 


     Representation #   6 mode #   6

     Self-consistent Calculation

      iter #   1 total cpu time :  2030.7 secs   av.it.:   6.3
      thresh= 1.000E-02 alpha_mix =  0.700 |ddv_scf|^2 =  1.756E-06

      iter #   2 total cpu time :  2034.7 secs   av.it.:  10.9
      thresh= 1.325E-04 alpha_mix =  0.700 |ddv_scf|^2 =  1.926E-06

      iter #   3 total cpu time :  2038.5 secs   av.it.:  10.0
      thresh= 1.388E-04 alpha_mix =  0.700 |ddv_scf|^2 =  4.716E-08

      iter #   4 total cpu time :  2042.4 secs   av.it.:  10.2
      thresh= 2.172E-05 alpha_mix =  0.700 |ddv_scf|^2 =  1.539E-10

      iter #   5 total cpu time :  2046.3 secs   av.it.:  10.6
      thresh= 1.241E-06 alpha_mix =  0.700 |ddv_scf|^2 =  2.900E-12

      iter #   6 total cpu time :  2050.3 secs   av.it.:  10.7
      thresh= 1.703E-07 alpha_mix =  0.700 |ddv_scf|^2 =  1.354E-14

      iter #   7 total cpu time :  2054.3 secs   av.it.:  10.7
      thresh= 1.164E-08 alpha_mix =  0.700 |ddv_scf|^2 =  7.736E-16

     End of self-consistent calculation

     Convergence has been achieved 
 
     Number of q in the star =   24
     List of q in the star:
          1   0.500000000  -0.166666667   0.833333333
          2   0.833333333   0.166666667   0.500000000
          3   0.500000000   0.166666667   0.833333333
          4  -0.833333333  -0.166666667   0.500000000
          5  -0.833333333  -0.166666667  -0.500000000
          6  -0.500000000  -0.166666667  -0.833333333
          7   0.833333333  -0.166666667   0.500000000
          8  -0.500000000  -0.166666667   0.833333333
          9  -0.833333333   0.166666667   0.500000000
         10   0.833333333   0.166666667  -0.500000000
         11   0.833333333  -0.166666667  -0.500000000
         12   0.500000000   0.166666667  -0.833333333
         13  -0.500000000   0.166666667   0.833333333
         14  -0.500000000   0.166666667  -0.833333333
         15  -0.833333333   0.166666667  -0.500000000
         16   0.833333333  -0.500000000   0.166666667
         17   0.833333333   0.500000000  -0.166666667
         18  -0.833333333  -0.500000000  -0.166666667
         19  -0.833333333   0.500000000   0.166666667
         20   0.166666667  -0.500000000   0.833333333
         21  -0.166666667   0.500000000   0.833333333
         22   0.166666667   0.500000000  -0.833333333
         23  -0.166666667  -0.500000000  -0.833333333
         24  -0.500000000   0.833333333   0.166666667

     Diagonalizing the dynamical matrix

     q = (    0.500000000  -0.166666667   0.833333333 ) 

 **************************************************************************
     freq (    1) =       5.052006 [THz] =     168.516797 [cm-1]
     freq (    2) =       6.066575 [THz] =     202.359164 [cm-1]
     freq (    3) =       9.812896 [THz] =     327.322991 [cm-1]
     freq (    4) =      11.453470 [THz] =     382.046641 [cm-1]
     freq (    5) =      14.041983 [THz] =     468.390143 [cm-1]
     freq (    6) =      14.270600 [THz] =     476.015987 [cm-1]
 **************************************************************************

     Calculation of q =   -0.3333333  -1.0000000   0.0000000
 
     Parallelization info
     --------------------
     sticks:   dense  smooth     PW     G-vecs:    dense   smooth      PW
     Min          62      62     21                 1303     1303     266
     Max          63      63     22                 1306     1306     269
     Sum        1003    1003    349                20875    20875    4279
 
     Using Slab Decomposition
 

     Title: 
     default                                                                    


     bravais-lattice index     =            2
     lattice parameter (alat)  =      10.1899  a.u.
     unit-cell volume          =     264.5151 (a.u.)^3
     number of atoms/cell      =            2
     number of atomic types    =            1
     number of electrons       =         8.00
     number of Kohn-Sham states=            4
     kinetic-energy cutoff     =      70.0000  Ry
     charge density cutoff     =     280.0000  Ry
     Exchange-correlation= PW
                           (   1   4   0   0   0   0   0)

     celldm(1)=  10.189905  celldm(2)=   0.000000  celldm(3)=   0.000000
     celldm(4)=   0.000000  celldm(5)=   0.000000  celldm(6)=   0.000000

     crystal axes: (cart. coord. in units of alat)
               a(1) = (  -0.500000   0.000000   0.500000 )  
               a(2) = (   0.000000   0.500000   0.500000 )  
               a(3) = (  -0.500000   0.500000   0.000000 )  

     reciprocal axes: (cart. coord. in units 2 pi/alat)
               b(1) = ( -1.000000 -1.000000  1.000000 )  
               b(2) = (  1.000000  1.000000  1.000000 )  
               b(3) = ( -1.000000  1.000000 -1.000000 )  


     PseudoPot. # 1 for Si read from file:
     ./pseudos/Si.nc.UPF
     MD5 check sum: 9e2d726316af3d4752eea8ab0afbb951
     Pseudo is Norm-conserving + core correction, Zval =  4.0
     Generated using ONCVPSP code by D. R. Hamann
     Using radial grid of 1510 points,  6 beta functions with: 
                l(1) =   0
                l(2) =   0
                l(3) =   1
                l(4) =   1
                l(5) =   2
                l(6) =   2

     atomic species   valence    mass     pseudopotential
        Si             4.00    28.08550     Si( 1.00)

     48 Sym. Ops., with inversion, found



   Cartesian axes

     site n.     atom                  positions (alat units)
         1           Si  tau(   1) = (   0.0000000   0.0000000   0.0000000  )
         2           Si  tau(   2) = (  -0.2500000   0.2500000   0.2500000  )

     number of k points=   432

     Number of k-points >= 100: set verbosity='high' to print them.

     Dense  grid:    20875 G-vectors     FFT dimensions: (  40,  40,  40)

     Estimated max dynamical RAM per process >       2.08 MB

     Estimated total dynamical RAM >      33.23 MB

     The potential is recalculated from file :
     /fastscratch/tsievers/QE_TMP_DIR/_ph0/silicon_ph_bench_nd_9_n_procs_16_2.save/charge-density

     Starting wfcs are    8 atomic wfcs

     Band Structure Calculation
     Davidson diagonalization with overlap
Abort(1008291599) on node 0 (rank 0 in comm 0): Fatal error in PMPI_Comm_split: Other MPI error, error stack:
PMPI_Comm_split(495)................: MPI_Comm_split(comm=0xc4000019, color=0, key=0, new_comm=0x7fff07246dc8) failed
PMPI_Comm_split(477)................: 
MPIR_Comm_split_impl(246)...........: 
MPIR_Get_contextid_sparse_group(602): Too many communicators (32746/32768 free on this process; ignore_id=0)
Abort(605638415) on node 1 (rank 1 in comm 0): Fatal error in PMPI_Comm_split: Other MPI error, error stack:
PMPI_Comm_split(495)................: MPI_Comm_split(comm=0xc4000012, color=0, key=1, new_comm=0x7ffd101403c8) failed
PMPI_Comm_split(477)................: 
MPIR_Comm_split_impl(246)...........: 
MPIR_Get_contextid_sparse_group(602): Too many communicators (32746/32768 free on this process; ignore_id=0)
Abort(404311823) on node 2 (rank 2 in comm 0): Fatal error in PMPI_Comm_split: Other MPI error, error stack:
PMPI_Comm_split(495)................: MPI_Comm_split(comm=0xc4000012, color=0, key=2, new_comm=0x7ffc589b77c8) failed
PMPI_Comm_split(477)................: 
MPIR_Comm_split_impl(246)...........: 
MPIR_Get_contextid_sparse_group(602): Too many communicators (0/32768 free on this process; ignore_id=0)
Abort(739856143) on node 3 (rank 3 in comm 0): Fatal error in PMPI_Comm_split: Other MPI error, error stack:
PMPI_Comm_split(495)................: MPI_Comm_split(comm=0xc4000012, color=1, key=0, new_comm=0x7ffe0d386ec8) failed
PMPI_Comm_split(477)................: 
MPIR_Comm_split_impl(246)...........: 
MPIR_Get_contextid_sparse_group(602): Too many communicators (32746/32768 free on this process; ignore_id=0)
Abort(874073871) on node 4 (rank 4 in comm 0): Fatal error in PMPI_Comm_split: Other MPI error, error stack:
PMPI_Comm_split(495)................: MPI_Comm_split(comm=0xc4000012, color=1, key=1, new_comm=0x7ffc4b85d548) failed
PMPI_Comm_split(477)................: 
MPIR_Comm_split_impl(246)...........: 
MPIR_Get_contextid_sparse_group(602): Too many communicators (32746/32768 free on this process; ignore_id=0)
Abort(1658639) on node 5 (rank 5 in comm 0): Fatal error in PMPI_Comm_split: Other MPI error, error stack:
PMPI_Comm_split(495)................: MPI_Comm_split(comm=0xc4000012, color=1, key=2, new_comm=0x7ffd01530448) failed
PMPI_Comm_split(477)................: 
MPIR_Comm_split_impl(246)...........: 
MPIR_Get_contextid_sparse_group(602): Too many communicators (32746/32768 free on this process; ignore_id=0)
Abort(202985231) on node 6 (rank 6 in comm 0): Fatal error in PMPI_Comm_split: Other MPI error, error stack:
PMPI_Comm_split(495)................: MPI_Comm_split(comm=0xc4000012, color=2, key=0, new_comm=0x7ffdeab253c8) failed
PMPI_Comm_split(477)................: 
MPIR_Comm_split_impl(246)...........: 
MPIR_Get_contextid_sparse_group(602): Too many communicators (32746/32768 free on this process; ignore_id=0)
Abort(68767503) on node 7 (rank 7 in comm 0): Fatal error in PMPI_Comm_split: Other MPI error, error stack:
PMPI_Comm_split(495)................: MPI_Comm_split(comm=0xc4000012, color=2, key=1, new_comm=0x7ffe23211ec8) failed
PMPI_Comm_split(477)................: 
MPIR_Comm_split_impl(246)...........: 
MPIR_Get_contextid_sparse_group(602): Too many communicators (32746/32768 free on this process; ignore_id=0)
Abort(202985231) on node 8 (rank 8 in comm 0): Fatal error in PMPI_Comm_split: Other MPI error, error stack:
PMPI_Comm_split(495)................: MPI_Comm_split(comm=0xc4000012, color=2, key=2, new_comm=0x7ffe48efd348) failed
PMPI_Comm_split(477)................: 
MPIR_Comm_split_impl(246)...........: 
MPIR_Get_contextid_sparse_group(602): Too many communicators (32746/32768 free on this process; ignore_id=0)
Command exited with non-zero status 15
real 2063.59
user 29985.82
sys 1455.11
