Module for gcc 10.2:
(GNU C/C++/FORTRAN compilers v10.2.0) - loaded.
Module for OpenMPI 4.1.0-gcc10.2-infiniband loaded.
Module for OpenBLAS v.0.3.20 - loaded.
Module for scalapack 2.2.0 loaded.

     Program PWSCF v.7.0 starts on 14Mar2022 at 15: 1:13 

     This program is part of the open-source Quantum ESPRESSO suite
     for quantum simulation of materials; please cite
         "P. Giannozzi et al., J. Phys.:Condens. Matter 21 395502 (2009);
         "P. Giannozzi et al., J. Phys.:Condens. Matter 29 465901 (2017);
         "P. Giannozzi et al., J. Chem. Phys. 152 154105 (2020);
          URL http://www.quantum-espresso.org", 
     in publications or presentations arising from this work. More details at
     http://www.quantum-espresso.org/quote

     Parallel version (MPI), running on    26 processors

     MPI processes distributed on     2 nodes
     R & G space division:  proc/nbgrp/npool/nimage =      26
     57361 MiB available memory on the printing compute node when the environment starts

     Reading input from in_files/silicon_bench_nd_16_n_procs_26.scf

     Current dimensions of program PWSCF are:
     Max number of different atomic species (ntypx) = 10
     Max number of k-points (npk) =  40000
     Max angular momentum in pseudopotentials (lmaxx) =  4

     Subspace diagonalization in iterative solution of the eigenvalue problem:
     one sub-group per band group will be used
     scalapack distributed-memory algorithm (size of sub-group:  4*  4 procs)


     Parallelization info
     --------------------
     sticks:   dense  smooth     PW     G-vecs:    dense   smooth      PW
     Min          38      38     11                  801      801     132
     Max          39      39     12                  804      804     136
     Sum        1003    1003    301                20875    20875    3479

     Using Slab Decomposition



     bravais-lattice index     =            2
     lattice parameter (alat)  =      10.2000  a.u.
     unit-cell volume          =     265.3020 (a.u.)^3
     number of atoms/cell      =            2
     number of atomic types    =            1
     number of electrons       =         8.00
     number of Kohn-Sham states=            4
     kinetic-energy cutoff     =      70.0000  Ry
     charge density cutoff     =     280.0000  Ry
     scf convergence threshold =      1.0E-12
     mixing beta               =       0.7000
     number of iterations used =            8  plain     mixing
     Exchange-correlation= PBE
                           (   1   4   3   4   0   0   0)

     celldm(1)=  10.200000  celldm(2)=   0.000000  celldm(3)=   0.000000
     celldm(4)=   0.000000  celldm(5)=   0.000000  celldm(6)=   0.000000

     crystal axes: (cart. coord. in units of alat)
               a(1) = (  -0.500000   0.000000   0.500000 )  
               a(2) = (   0.000000   0.500000   0.500000 )  
               a(3) = (  -0.500000   0.500000   0.000000 )  

     reciprocal axes: (cart. coord. in units 2 pi/alat)
               b(1) = ( -1.000000 -1.000000  1.000000 )  
               b(2) = (  1.000000  1.000000  1.000000 )  
               b(3) = ( -1.000000  1.000000 -1.000000 )  


     PseudoPot. # 1 for Si read from file:
     ./pseudos/Si_pbe_v0.4.1.nc.sr.upf
     MD5 check sum: 02fab3f35e82123ef5bf1cb05d5b1a5e
     Pseudo is Norm-conserving + core correction, Zval =  4.0
     Generated using ONCVPSP code by D. R. Hamann
     Using radial grid of 1510 points,  6 beta functions with: 
                l(1) =   0
                l(2) =   0
                l(3) =   1
                l(4) =   1
                l(5) =   2
                l(6) =   2

     atomic species   valence    mass     pseudopotential
        Si             4.00    28.08600     Si( 1.00)

     48 Sym. Ops., with inversion, found (24 have fractional translation)



   Cartesian axes

     site n.     atom                  positions (alat units)
         1           Si  tau(   1) = (   0.0000000   0.0000000   0.0000000  )
         2           Si  tau(   2) = (   0.2500000   0.2500000   0.2500000  )

     number of k points=  1661

     Number of k-points >= 100: set verbosity='high' to print them.

     Dense  grid:    20875 G-vectors     FFT dimensions: (  40,  40,  40)

     Estimated max dynamical RAM per process >      12.12 MB

     Estimated total dynamical RAM >     315.18 MB

     Initial potential from superposition of free atoms

     starting charge       7.9988, renormalised to       8.0000
     Starting wfcs are    8 randomized atomic wfcs

     total cpu time spent up to now is       31.4 secs

     Self-consistent Calculation

     iteration #  1     ecut=    70.00 Ry     beta= 0.70
     Davidson diagonalization with overlap
     ethr =  1.00E-02,  avg # of iterations =  2.0

     Threshold (ethr) on eigenvalues was too large:
     Diagonalizing with lowered threshold

     Davidson diagonalization with overlap
     ethr =  5.86E-04,  avg # of iterations =  2.0

     total cpu time spent up to now is      168.7 secs

     total energy              =     -16.92149479 Ry
     estimated scf accuracy    <       0.05530129 Ry

     iteration #  2     ecut=    70.00 Ry     beta= 0.70
     Davidson diagonalization with overlap
     ethr =  6.91E-04,  avg # of iterations =  1.0

     total cpu time spent up to now is      216.1 secs

     total energy              =     -16.92319939 Ry
     estimated scf accuracy    <       0.00290960 Ry

     iteration #  3     ecut=    70.00 Ry     beta= 0.70
     Davidson diagonalization with overlap
     ethr =  3.64E-05,  avg # of iterations =  2.3

     total cpu time spent up to now is      292.4 secs

     total energy              =     -16.92386835 Ry
     estimated scf accuracy    <       0.00006639 Ry

     iteration #  4     ecut=    70.00 Ry     beta= 0.70
     Davidson diagonalization with overlap
     ethr =  8.30E-07,  avg # of iterations =  5.0

     total cpu time spent up to now is      414.1 secs

     total energy              =     -16.92395269 Ry
     estimated scf accuracy    <       0.00000027 Ry

     iteration #  5     ecut=    70.00 Ry     beta= 0.70
     Davidson diagonalization with overlap
     ethr =  3.36E-09,  avg # of iterations =  6.5

     total cpu time spent up to now is      566.8 secs

     total energy              =     -16.92395445 Ry
     estimated scf accuracy    <          9.1E-09 Ry

     iteration #  6     ecut=    70.00 Ry     beta= 0.70
     Davidson diagonalization with overlap
     ethr =  1.13E-10,  avg # of iterations =  3.6

     total cpu time spent up to now is      660.2 secs

     total energy              =     -16.92395445 Ry
     estimated scf accuracy    <          8.0E-10 Ry

     iteration #  7     ecut=    70.00 Ry     beta= 0.70
     Davidson diagonalization with overlap
     ethr =  9.98E-12,  avg # of iterations =  3.4

     total cpu time spent up to now is      750.4 secs

     total energy              =     -16.92395445 Ry
     estimated scf accuracy    <          1.3E-10 Ry

     iteration #  8     ecut=    70.00 Ry     beta= 0.70
     Davidson diagonalization with overlap
     ethr =  1.67E-12,  avg # of iterations =  2.4

     total cpu time spent up to now is      819.5 secs

     End of self-consistent calculation

     Number of k-points >= 100: set verbosity='high' to print the bands.

     highest occupied level (ev):     6.4228

!    total energy              =     -16.92395445 Ry
     estimated scf accuracy    <          8.4E-14 Ry

     The total energy is the sum of the following terms:
     one-electron contribution =       5.10086351 Ry
     hartree contribution      =       1.07923922 Ry
     xc contribution           =      -6.20429861 Ry
     ewald contribution        =     -16.89975857 Ry

     convergence has been achieved in   8 iterations

     Writing all to output data dir /fastscratch/tsievers/QE_TMP_DIR/silicon_bench_nd_16_n_procs_26.save/

     init_run     :     19.24s CPU     31.13s WALL (       1 calls)
     electrons    :    488.34s CPU    788.17s WALL (       1 calls)

     Called by init_run:
     wfcinit      :     19.02s CPU     30.83s WALL (       1 calls)
     potinit      :      0.01s CPU      0.09s WALL (       1 calls)
     hinit0       :      0.17s CPU      0.17s WALL (       1 calls)

     Called by electrons:
     c_bands      :    460.01s CPU    742.33s WALL (       9 calls)
     sum_band     :     28.24s CPU     45.58s WALL (       9 calls)
     v_of_rho     :      0.06s CPU      0.13s WALL (       9 calls)
     mix_rho      :      0.02s CPU      0.03s WALL (       9 calls)

     Called by c_bands:
     init_us_2    :      1.21s CPU      1.88s WALL (   31559 calls)
     init_us_2:cp :      1.16s CPU      1.82s WALL (   31559 calls)
     cegterg      :    455.12s CPU    734.90s WALL (   14949 calls)

     Called by *egterg:
     cdiaghg      :     36.52s CPU     55.97s WALL (   60147 calls)
     h_psi        :    207.63s CPU    334.18s WALL (   63469 calls)
     g_psi        :      0.11s CPU      0.17s WALL (   46859 calls)

     Called by h_psi:
     h_psi:calbec :     27.08s CPU     44.00s WALL (   63469 calls)
     vloc_psi     :    179.45s CPU    288.42s WALL (   63469 calls)
     add_vuspsi   :      0.80s CPU      1.31s WALL (   63469 calls)

     General routines
     calbec       :     26.98s CPU     43.87s WALL (   63469 calls)
     fft          :      0.21s CPU      0.27s WALL (      91 calls)
     ffts         :      0.01s CPU      0.02s WALL (       9 calls)
     fftw         :    205.52s CPU    330.57s WALL (  490692 calls)

     Parallel routines

     PWSCF        :   8m48.24s CPU  14m50.56s WALL


   This run was terminated on:  15:16: 3  14Mar2022            

=------------------------------------------------------------------------------=
   JOB DONE.
=------------------------------------------------------------------------------=
Note: The following floating-point exceptions are signalling: IEEE_UNDERFLOW_FLAG IEEE_DENORMAL
Note: The following floating-point exceptions are signalling: IEEE_UNDERFLOW_FLAG IEEE_DENORMAL
Note: The following floating-point exceptions are signalling: IEEE_UNDERFLOW_FLAG IEEE_DENORMAL
Note: The following floating-point exceptions are signalling: IEEE_UNDERFLOW_FLAG IEEE_DENORMAL
Note: The following floating-point exceptions are signalling: IEEE_UNDERFLOW_FLAG IEEE_DENORMAL
Note: The following floating-point exceptions are signalling: IEEE_UNDERFLOW_FLAG IEEE_DENORMAL
Note: The following floating-point exceptions are signalling: IEEE_UNDERFLOW_FLAG IEEE_DENORMAL
Note: The following floating-point exceptions are signalling: IEEE_UNDERFLOW_FLAG IEEE_DENORMAL
Note: The following floating-point exceptions are signalling: IEEE_UNDERFLOW_FLAG IEEE_DENORMAL
Note: The following floating-point exceptions are signalling: IEEE_UNDERFLOW_FLAG IEEE_DENORMAL
Note: The following floating-point exceptions are signalling: IEEE_UNDERFLOW_FLAG IEEE_DENORMAL
Note: The following floating-point exceptions are signalling: IEEE_UNDERFLOW_FLAG IEEE_DENORMAL
Note: The following floating-point exceptions are signalling: IEEE_UNDERFLOW_FLAG IEEE_DENORMAL
Note: The following floating-point exceptions are signalling: IEEE_UNDERFLOW_FLAG IEEE_DENORMAL
Note: The following floating-point exceptions are signalling: IEEE_UNDERFLOW_FLAG IEEE_DENORMAL
Note: The following floating-point exceptions are signalling: IEEE_UNDERFLOW_FLAG IEEE_DENORMAL
real 892.57
user 10859.15
sys 6919.50
