Module for gcc 10.2:
(GNU C/C++/FORTRAN compilers v10.2.0) - loaded.
Module for OpenMPI 4.1.0-gcc10.2-infiniband loaded.
Module for OpenBLAS v.0.3.20 - loaded.
Module for scalapack 2.2.0 loaded.

     Program PWSCF v.7.0 starts on 30Apr2022 at 11: 2: 2 

     This program is part of the open-source Quantum ESPRESSO suite
     for quantum simulation of materials; please cite
         "P. Giannozzi et al., J. Phys.:Condens. Matter 21 395502 (2009);
         "P. Giannozzi et al., J. Phys.:Condens. Matter 29 465901 (2017);
         "P. Giannozzi et al., J. Chem. Phys. 152 154105 (2020);
          URL http://www.quantum-espresso.org", 
     in publications or presentations arising from this work. More details at
     http://www.quantum-espresso.org/quote

     Parallel version (MPI), running on    28 processors

     MPI processes distributed on     2 nodes
     K-points division:     npool     =       4
     R & G space division:  proc/nbgrp/npool/nimage =       7
     47301 MiB available memory on the printing compute node when the environment starts

     Reading input from in_files/si_ph_bench_nk_ompi_4_n_procs_28_1.scf

     Current dimensions of program PWSCF are:
     Max number of different atomic species (ntypx) = 10
     Max number of k-points (npk) =  40000
     Max angular momentum in pseudopotentials (lmaxx) =  4

     Subspace diagonalization in iterative solution of the eigenvalue problem:
     one sub-group per band group will be used
     scalapack distributed-memory algorithm (size of sub-group:  2*  2 procs)


     Parallelization info
     --------------------
     sticks:   dense  smooth     PW     G-vecs:    dense   smooth      PW
     Min         143     143     43                 2981     2981     497
     Max         144     144     43                 2984     2984     497
     Sum        1003    1003    301                20875    20875    3479

     Using Slab Decomposition



     bravais-lattice index     =            2
     lattice parameter (alat)  =      10.1899  a.u.
     unit-cell volume          =     264.5151 (a.u.)^3
     number of atoms/cell      =            2
     number of atomic types    =            1
     number of electrons       =         8.00
     number of Kohn-Sham states=            4
     kinetic-energy cutoff     =      70.0000  Ry
     charge density cutoff     =     280.0000  Ry
     scf convergence threshold =      1.0E-10
     mixing beta               =       0.7000
     number of iterations used =            8  plain     mixing
     Exchange-correlation= SLA  PW   NOGX NOGC
                           (   1   4   0   0   0   0   0)

     celldm(1)=  10.189905  celldm(2)=   0.000000  celldm(3)=   0.000000
     celldm(4)=   0.000000  celldm(5)=   0.000000  celldm(6)=   0.000000

     crystal axes: (cart. coord. in units of alat)
               a(1) = (  -0.500000   0.000000   0.500000 )  
               a(2) = (   0.000000   0.500000   0.500000 )  
               a(3) = (  -0.500000   0.500000   0.000000 )  

     reciprocal axes: (cart. coord. in units 2 pi/alat)
               b(1) = ( -1.000000 -1.000000  1.000000 )  
               b(2) = (  1.000000  1.000000  1.000000 )  
               b(3) = ( -1.000000  1.000000 -1.000000 )  


     PseudoPot. # 1 for Si read from file:
     ./pseudos/Si.nc.UPF
     MD5 check sum: 9e2d726316af3d4752eea8ab0afbb951
     Pseudo is Norm-conserving + core correction, Zval =  4.0
     Generated using ONCVPSP code by D. R. Hamann
     Using radial grid of 1510 points,  6 beta functions with: 
                l(1) =   0
                l(2) =   0
                l(3) =   1
                l(4) =   1
                l(5) =   2
                l(6) =   2

     atomic species   valence    mass     pseudopotential
        Si             4.00    28.08550     Si( 1.00)

     48 Sym. Ops., with inversion, found (24 have fractional translation)



   Cartesian axes

     site n.     atom                  positions (alat units)
         1           Si  tau(   1) = (   0.0000000   0.0000000   0.0000000  )
         2           Si  tau(   2) = (  -0.2500000   0.2500000   0.2500000  )

     number of k points=    28
                       cart. coord. in units 2pi/alat
        k(    1) = (  -0.0833333   0.0833333   0.0833333), wk =   0.0185185
        k(    2) = (  -0.2500000   0.2500000  -0.0833333), wk =   0.0555556
        k(    3) = (  -0.4166667   0.4166667  -0.2500000), wk =   0.0555556
        k(    4) = (   0.4166667  -0.4166667   0.5833333), wk =   0.0555556
        k(    5) = (   0.2500000  -0.2500000   0.4166667), wk =   0.0555556
        k(    6) = (   0.0833333  -0.0833333   0.2500000), wk =   0.0555556
        k(    7) = (  -0.0833333   0.4166667   0.0833333), wk =   0.0555556
        k(    8) = (  -0.2500000   0.5833333  -0.0833333), wk =   0.1111111
        k(    9) = (   0.5833333  -0.2500000   0.7500000), wk =   0.1111111
        k(   10) = (   0.4166667  -0.0833333   0.5833333), wk =   0.1111111
        k(   11) = (   0.2500000   0.0833333   0.4166667), wk =   0.1111111
        k(   12) = (  -0.0833333   0.7500000   0.0833333), wk =   0.0555556
        k(   13) = (   0.7500000  -0.0833333   0.9166667), wk =   0.1111111
        k(   14) = (   0.5833333   0.0833333   0.7500000), wk =   0.1111111
        k(   15) = (   0.4166667   0.2500000   0.5833333), wk =   0.1111111
        k(   16) = (  -0.0833333  -0.9166667   0.0833333), wk =   0.0555556
        k(   17) = (  -0.2500000  -0.7500000  -0.0833333), wk =   0.1111111
        k(   18) = (  -0.0833333  -0.5833333   0.0833333), wk =   0.0555556
        k(   19) = (  -0.2500000   0.2500000   0.2500000), wk =   0.0185185
        k(   20) = (  -0.4166667   0.4166667   0.0833333), wk =   0.0555556
        k(   21) = (   0.4166667  -0.4166667   0.9166667), wk =   0.0555556
        k(   22) = (   0.2500000  -0.2500000   0.7500000), wk =   0.0555556
        k(   23) = (  -0.2500000   0.5833333   0.2500000), wk =   0.0555556
        k(   24) = (   0.5833333  -0.2500000   1.0833333), wk =   0.1111111
        k(   25) = (   0.4166667  -0.0833333   0.9166667), wk =   0.1111111
        k(   26) = (  -0.2500000  -1.0833333   0.2500000), wk =   0.0555556
        k(   27) = (  -0.4166667   0.4166667   0.4166667), wk =   0.0185185
        k(   28) = (   0.4166667  -0.4166667   1.2500000), wk =   0.0555556

     Dense  grid:    20875 G-vectors     FFT dimensions: (  40,  40,  40)

     Estimated max dynamical RAM per process >       3.72 MB

     Estimated total dynamical RAM >      88.98 MB

     Initial potential from superposition of free atoms

     starting charge       7.9989, renormalised to       8.0000
     Starting wfcs are    8 randomized atomic wfcs

     total cpu time spent up to now is       29.9 secs

     Self-consistent Calculation

     iteration #  1     ecut=    70.00 Ry     beta= 0.70
     Davidson diagonalization with overlap
     ethr =  1.00E-02,  avg # of iterations =  2.0

     Threshold (ethr) on eigenvalues was too large:
     Diagonalizing with lowered threshold

     Davidson diagonalization with overlap
     ethr =  6.13E-04,  avg # of iterations =  2.0

     total cpu time spent up to now is       57.3 secs

     total energy              =     -17.04761645 Ry
     estimated scf accuracy    <       0.05800761 Ry

     iteration #  2     ecut=    70.00 Ry     beta= 0.70
     Davidson diagonalization with overlap
     ethr =  7.25E-04,  avg # of iterations =  1.0

     total cpu time spent up to now is       69.8 secs

     total energy              =     -17.04995667 Ry
     estimated scf accuracy    <       0.00248706 Ry

     iteration #  3     ecut=    70.00 Ry     beta= 0.70
     Davidson diagonalization with overlap
     ethr =  3.11E-05,  avg # of iterations =  3.1

     total cpu time spent up to now is       93.0 secs

     total energy              =     -17.05083144 Ry
     estimated scf accuracy    <       0.00009863 Ry

     iteration #  4     ecut=    70.00 Ry     beta= 0.70
     Davidson diagonalization with overlap
     ethr =  1.23E-06,  avg # of iterations =  4.2

     total cpu time spent up to now is      116.5 secs

     total energy              =     -17.05089773 Ry
     estimated scf accuracy    <       0.00000425 Ry

     iteration #  5     ecut=    70.00 Ry     beta= 0.70
     Davidson diagonalization with overlap
     ethr =  5.32E-08,  avg # of iterations =  4.4

     total cpu time spent up to now is      136.1 secs

     total energy              =     -17.05090096 Ry
     estimated scf accuracy    <       0.00000019 Ry

     iteration #  6     ecut=    70.00 Ry     beta= 0.70
     Davidson diagonalization with overlap
     ethr =  2.35E-09,  avg # of iterations =  3.6

     total cpu time spent up to now is      163.6 secs

     total energy              =     -17.05090106 Ry
     estimated scf accuracy    <       0.00000002 Ry

     iteration #  7     ecut=    70.00 Ry     beta= 0.70
     Davidson diagonalization with overlap
     ethr =  1.88E-10,  avg # of iterations =  3.3

     total cpu time spent up to now is      183.3 secs

     End of self-consistent calculation

          k =-0.0833 0.0833 0.0833 (  2667 PWs)   bands (ev):

    -5.7561   5.3866   6.1106   6.1106

          k =-0.2500 0.2500-0.0833 (  2621 PWs)   bands (ev):

    -5.2692   3.2787   4.8359   5.9020

          k =-0.4167 0.4167-0.2500 (  2618 PWs)   bands (ev):

    -4.1491   0.4558   4.3704   5.2525

          k = 0.4167-0.4167 0.5833 (  2604 PWs)   bands (ev):

    -3.4238  -0.7235   4.4440   4.8612

          k = 0.2500-0.2500 0.4167 (  2618 PWs)   bands (ev):

    -4.5725   1.3222   4.9163   4.9543

          k = 0.0833-0.0833 0.2500 (  2643 PWs)   bands (ev):

    -5.5104   4.3092   5.4447   5.6431

          k =-0.0833 0.4167 0.0833 (  2627 PWs)   bands (ev):

    -5.0231   3.1094   4.6844   4.6977

          k =-0.2500 0.5833-0.0833 (  2613 PWs)   bands (ev):

    -4.0918   1.2428   3.3199   4.3008

          k = 0.5833-0.2500 0.7500 (  2616 PWs)   bands (ev):

    -2.9383  -0.5645   2.7090   4.0652

          k = 0.4167-0.0833 0.5833 (  2617 PWs)   bands (ev):

    -3.6856   0.5301   2.6549   4.5685

          k = 0.2500 0.0833 0.4167 (  2624 PWs)   bands (ev):

    -4.7922   2.2460   4.0374   5.2604

          k =-0.0833 0.7500 0.0833 (  2617 PWs)   bands (ev):

    -3.3664   0.4197   3.2861   3.6484

          k = 0.7500-0.0833 0.9167 (  2608 PWs)   bands (ev):

    -2.1400  -0.9430   2.4039   3.2177

          k = 0.5833 0.0833 0.7500 (  2608 PWs)   bands (ev):

    -2.5099  -0.6178   1.9049   3.7798

          k = 0.4167 0.2500 0.5833 (  2622 PWs)   bands (ev):

    -3.5664  -0.1967   3.6417   4.6731

          k =-0.0833-0.9167 0.0833 (  2604 PWs)   bands (ev):

    -2.2385  -0.9535   3.0091   3.4291

          k =-0.2500-0.7500-0.0833 (  2615 PWs)   bands (ev):

    -3.1914   0.1893   2.7413   3.5675

          k =-0.0833-0.5833 0.0833 (  2620 PWs)   bands (ev):

    -4.3033   1.8031   3.8480   4.0788

          k =-0.2500 0.2500 0.2500 (  2632 PWs)   bands (ev):

    -5.0343   2.2731   5.4857   5.4857

          k =-0.4167 0.4167 0.0833 (  2620 PWs)   bands (ev):

    -4.3392   1.3430   3.2813   5.3165

          k = 0.4167-0.4167 0.9167 (  2613 PWs)   bands (ev):

    -3.1274  -0.1140   2.1362   4.5076

          k = 0.2500-0.2500 0.7500 (  2618 PWs)   bands (ev):

    -3.0761  -0.1941   2.6355   4.0115

          k =-0.2500 0.5833 0.2500 (  2613 PWs)   bands (ev):

    -3.9042   0.5133   3.7736   4.3933

          k = 0.5833-0.2500 1.0833 (  2619 PWs)   bands (ev):

    -2.8765  -0.2149   2.2381   3.5572

          k = 0.4167-0.0833 0.9167 (  2613 PWs)   bands (ev):

    -2.0245  -0.9506   2.0592   2.8637

          k =-0.2500-1.0833 0.2500 (  2605 PWs)   bands (ev):

    -2.2385  -0.8649   1.9289   3.8127

          k =-0.4167 0.4167 0.4167 (  2602 PWs)   bands (ev):

    -3.8074  -0.3119   5.0941   5.0941

          k = 0.4167-0.4167 1.2500 (  2605 PWs)   bands (ev):

    -3.1840  -0.6106   3.2018   4.6388

     highest occupied level (ev):     6.1106

!    total energy              =     -17.05090107 Ry
     estimated scf accuracy    <          5.1E-11 Ry

     The total energy is the sum of the following terms:
     one-electron contribution =       5.01080598 Ry
     hartree contribution      =       1.07710458 Ry
     xc contribution           =      -6.22231036 Ry
     ewald contribution        =     -16.91650128 Ry

     convergence has been achieved in   7 iterations

     Forces acting on atoms (cartesian axes, Ry/au):

     atom    1 type  1   force =     0.00000000    0.00000000    0.00000000
     atom    2 type  1   force =     0.00000000    0.00000000   -0.00000000

     Total force =     0.000000     Total SCF correction =     0.000000

     Writing all to output data dir /fastscratch/tsievers/QE_TMP_DIR/si_ph_bench_nk_ompi_4_n_procs_28_1.save/

     init_run     :      1.75s CPU      5.61s WALL (       1 calls)
     electrons    :     46.64s CPU    154.29s WALL (       1 calls)
     forces       :      0.58s CPU      1.80s WALL (       1 calls)

     Called by init_run:
     wfcinit      :      1.05s CPU      3.57s WALL (       1 calls)
     potinit      :      0.11s CPU      0.31s WALL (       1 calls)
     hinit0       :      0.29s CPU      0.71s WALL (       1 calls)

     Called by electrons:
     c_bands      :     42.83s CPU    141.92s WALL (       8 calls)
     sum_band     :      1.69s CPU      5.25s WALL (       8 calls)
     v_of_rho     :      0.67s CPU      2.06s WALL (       8 calls)
     mix_rho      :      0.55s CPU      2.03s WALL (       8 calls)

     Called by c_bands:
     init_us_2    :      0.01s CPU      0.02s WALL (     126 calls)
     init_us_2:cp :      0.01s CPU      0.02s WALL (     126 calls)
     cegterg      :     30.84s CPU    101.93s WALL (      56 calls)

     Called by *egterg:
     cdiaghg      :      8.19s CPU     26.98s WALL (     230 calls)
     h_psi        :      6.92s CPU     22.85s WALL (     244 calls)
     g_psi        :      0.00s CPU      0.00s WALL (     181 calls)

     Called by h_psi:
     h_psi:calbec :      2.01s CPU      6.61s WALL (     244 calls)
     vloc_psi     :      4.90s CPU     16.22s WALL (     244 calls)
     add_vuspsi   :      0.01s CPU      0.01s WALL (     244 calls)

     General routines
     calbec       :      2.45s CPU      7.97s WALL (     272 calls)
     fft          :      0.31s CPU      0.88s WALL (      28 calls)
     ffts         :      0.12s CPU      0.37s WALL (       8 calls)
     fftw         :      5.87s CPU     19.21s WALL (    1832 calls)

     Parallel routines

     PWSCF        :     58.30s CPU   3m12.21s WALL


   This run was terminated on:  11: 5:14  30Apr2022            

=------------------------------------------------------------------------------=
   JOB DONE.
=------------------------------------------------------------------------------=
Note: The following floating-point exceptions are signalling: IEEE_UNDERFLOW_FLAG IEEE_DENORMAL
Note: The following floating-point exceptions are signalling: IEEE_UNDERFLOW_FLAG IEEE_DENORMAL
Note: The following floating-point exceptions are signalling: IEEE_UNDERFLOW_FLAG IEEE_DENORMAL
Note: The following floating-point exceptions are signalling: IEEE_UNDERFLOW_FLAG IEEE_DENORMAL
Note: The following floating-point exceptions are signalling: IEEE_UNDERFLOW_FLAG IEEE_DENORMAL
Note: The following floating-point exceptions are signalling: IEEE_UNDERFLOW_FLAG IEEE_DENORMAL
Note: The following floating-point exceptions are signalling: IEEE_UNDERFLOW_FLAG IEEE_DENORMAL
Note: The following floating-point exceptions are signalling: IEEE_UNDERFLOW_FLAG IEEE_DENORMAL
Note: The following floating-point exceptions are signalling: IEEE_UNDERFLOW_FLAG IEEE_DENORMAL
Note: The following floating-point exceptions are signalling: IEEE_UNDERFLOW_FLAG IEEE_DENORMAL
Note: The following floating-point exceptions are signalling: IEEE_UNDERFLOW_FLAG IEEE_DENORMAL
Note: The following floating-point exceptions are signalling: IEEE_UNDERFLOW_FLAG IEEE_DENORMAL
Note: The following floating-point exceptions are signalling: IEEE_UNDERFLOW_FLAG IEEE_DENORMAL
Note: The following floating-point exceptions are signalling: IEEE_UNDERFLOW_FLAG IEEE_DENORMAL
Note: The following floating-point exceptions are signalling: IEEE_UNDERFLOW_FLAG IEEE_DENORMAL
Note: The following floating-point exceptions are signalling: IEEE_UNDERFLOW_FLAG IEEE_DENORMAL

     Program PHONON v.7.0 starts on 30Apr2022 at 11: 5:18 

     This program is part of the open-source Quantum ESPRESSO suite
     for quantum simulation of materials; please cite
         "P. Giannozzi et al., J. Phys.:Condens. Matter 21 395502 (2009);
         "P. Giannozzi et al., J. Phys.:Condens. Matter 29 465901 (2017);
         "P. Giannozzi et al., J. Chem. Phys. 152 154105 (2020);
          URL http://www.quantum-espresso.org", 
     in publications or presentations arising from this work. More details at
     http://www.quantum-espresso.org/quote

     Parallel version (MPI), running on    28 processors

     MPI processes distributed on     2 nodes
     K-points division:     npool     =       4
     R & G space division:  proc/nbgrp/npool/nimage =       7
     47300 MiB available memory on the printing compute node when the environment starts

     Reading input from in_files/si_ph_bench_nk_ompi_4_n_procs_28_1.ph
      Title line not specified: using 'default'.

     Reading xml data from directory:

     /fastscratch/tsievers/QE_TMP_DIR/si_ph_bench_nk_ompi_4_n_procs_28_1.save/

     IMPORTANT: XC functional enforced from input :
     Exchange-correlation= PW
                           (   1   4   0   0   0   0   0)
     Any further DFT definition will be discarded
     Please, verify this is what you really want


     Parallelization info
     --------------------
     sticks:   dense  smooth     PW     G-vecs:    dense   smooth      PW
     Min         143     143     43                 2981     2981     497
     Max         144     144     43                 2984     2984     497
     Sum        1003    1003    301                20875    20875    3479

     Using Slab Decomposition

     Reading collected, re-writing distributed wavefunctions


     Dynamical matrices for ( 6, 6, 6)  uniform grid of q-points
     (  16 q-points):
       N         xq(1)         xq(2)         xq(3) 
       1   0.000000000   0.000000000   0.000000000
       2  -0.166666667   0.166666667  -0.166666667
       3  -0.333333333   0.333333333  -0.333333333
       4   0.500000000  -0.500000000   0.500000000
       5   0.000000000   0.333333333   0.000000000
       6  -0.166666667   0.500000000  -0.166666667
       7   0.666666667  -0.333333333   0.666666667
       8   0.500000000  -0.166666667   0.500000000
       9   0.333333333   0.000000000   0.333333333
      10   0.000000000   0.666666667   0.000000000
      11   0.833333333  -0.166666667   0.833333333
      12   0.666666667  -0.000000000   0.666666667
      13   0.000000000  -1.000000000   0.000000000
      14   0.666666667  -0.333333333   1.000000000
      15   0.500000000  -0.166666667   0.833333333
      16  -0.333333333  -1.000000000   0.000000000

     Calculation of q =    0.0000000   0.0000000   0.0000000

     default                                                                    

     bravais-lattice index     =            2
     lattice parameter (alat)  =      10.1899  a.u.
     unit-cell volume          =     264.5151 (a.u.)^3
     number of atoms/cell      =            2
     number of atomic types    =            1
     kinetic-energy cut-off    =      70.0000  Ry
     charge density cut-off    =     280.0000  Ry
     convergence threshold     =      1.0E-15
     beta                      =       0.7000
     number of iterations used =            4
     Exchange-correlation= PW
                           (   1   4   0   0   0   0   0)


     celldm(1)=   10.18990  celldm(2)=    0.00000  celldm(3)=    0.00000
     celldm(4)=    0.00000  celldm(5)=    0.00000  celldm(6)=    0.00000

     crystal axes: (cart. coord. in units of alat)
               a(1) = ( -0.5000  0.0000  0.5000 )  
               a(2) = (  0.0000  0.5000  0.5000 )  
               a(3) = ( -0.5000  0.5000  0.0000 )  

     reciprocal axes: (cart. coord. in units 2 pi/alat)
               b(1) = ( -1.0000 -1.0000  1.0000 )  
               b(2) = (  1.0000  1.0000  1.0000 )  
               b(3) = ( -1.0000  1.0000 -1.0000 )  


     Atoms inside the unit cell: 

     Cartesian axes

     site n.  atom      mass           positions (alat units)
        1     Si  28.0855   tau(    1) = (    0.00000    0.00000    0.00000  )
        2     Si  28.0855   tau(    2) = (   -0.25000    0.25000    0.25000  )

     Computing dynamical matrix for 
                    q = (   0.0000000   0.0000000   0.0000000 )

     49 Sym.Ops. (with q -> -q+G )


     G cutoff =  736.4420  (   2984 G-vectors)     FFT grid: ( 40, 40, 40)
     number of k points=    28

     PseudoPot. # 1 for Si read from file:
     ./pseudos/Si.nc.UPF
     MD5 check sum: 9e2d726316af3d4752eea8ab0afbb951
     Pseudo is Norm-conserving + core correction, Zval =  4.0
     Generated using ONCVPSP code by D. R. Hamann
     Using radial grid of 1510 points,  6 beta functions with: 
                l(1) =   0
                l(2) =   0
                l(3) =   1
                l(4) =   1
                l(5) =   2
                l(6) =   2

     Mode symmetry, O_h (m-3m)  point group:


     Electric field:
     Dielectric constant
     Born effective charges in two ways 


     Atomic displacements:
     There are    2 irreducible representations

     Representation     1      3 modes -  To be done

     Representation     2      3 modes -  To be done



     Alpha used in Ewald sum =   2.8000
     PHONON       :     44.75s CPU   2m33.39s WALL


     Electric Fields Calculation

      iter #   1 total cpu time :   245.2 secs   av.it.:   6.5
      thresh= 1.000E-02 alpha_mix =  0.700 |ddv_scf|^2 =  1.044E-07

      iter #   2 total cpu time :   286.9 secs   av.it.:  11.7
      thresh= 3.230E-05 alpha_mix =  0.700 |ddv_scf|^2 =  4.472E-09

      iter #   3 total cpu time :   321.9 secs   av.it.:  11.6
      thresh= 6.688E-06 alpha_mix =  0.700 |ddv_scf|^2 =  5.041E-11

      iter #   4 total cpu time :   353.3 secs   av.it.:  11.9
      thresh= 7.100E-07 alpha_mix =  0.700 |ddv_scf|^2 =  2.991E-13

      iter #   5 total cpu time :   403.4 secs   av.it.:  10.9
      thresh= 5.469E-08 alpha_mix =  0.700 |ddv_scf|^2 =  1.097E-16

     End of electric fields calculation

          Dielectric constant in cartesian axis 

          (      13.312108325       0.000000000      -0.000000000 )
          (       0.000000000      13.312108325      -0.000000000 )
          (      -0.000000000      -0.000000000      13.312108325 )

          Effective charges (d Force / dE) in cartesian axis without acoustic sum rule applied (asr)

           atom      1   Si Mean Z*:       -0.00677
      Ex  (       -0.00677       -0.00000        0.00000 )
      Ey  (       -0.00000       -0.00677        0.00000 )
      Ez  (       -0.00000        0.00000       -0.00677 )
           atom      2   Si Mean Z*:       -0.00677
      Ex  (       -0.00677       -0.00000       -0.00000 )
      Ey  (       -0.00000       -0.00677        0.00000 )
      Ez  (       -0.00000        0.00000       -0.00677 )

          Effective charges Sum: Mean:       -0.01353
             -0.01353       -0.00000       -0.00000
             -0.00000       -0.01353        0.00000
             -0.00000        0.00000       -0.01353

          Effective charges (d Force / dE) in cartesian axis with asr applied: 
           atom      1   Si Mean Z*:        0.00000
      E*x (        0.00000        0.00000        0.00000 )
      E*y (        0.00000        0.00000       -0.00000 )
      E*z (        0.00000        0.00000        0.00000 )
           atom      2   Si Mean Z*:       -0.00000
      E*x (       -0.00000       -0.00000       -0.00000 )
      E*y (       -0.00000       -0.00000        0.00000 )
      E*z (       -0.00000        0.00000       -0.00000 )


     Representation #   1 modes #   1   2   3

     Self-consistent Calculation

      iter #   1 total cpu time :   448.5 secs   av.it.:   6.0
      thresh= 1.000E-02 alpha_mix =  0.700 |ddv_scf|^2 =  1.504E-08

      iter #   2 total cpu time :   485.4 secs   av.it.:  11.8
      thresh= 1.226E-05 alpha_mix =  0.700 |ddv_scf|^2 =  3.376E-10

      iter #   3 total cpu time :   507.9 secs   av.it.:  11.7
      thresh= 1.837E-06 alpha_mix =  0.700 |ddv_scf|^2 =  1.262E-11

      iter #   4 total cpu time :   538.1 secs   av.it.:  11.5
      thresh= 3.552E-07 alpha_mix =  0.700 |ddv_scf|^2 =  4.082E-14

      iter #   5 total cpu time :   569.7 secs   av.it.:  11.9
      thresh= 2.020E-08 alpha_mix =  0.700 |ddv_scf|^2 =  1.918E-16

     End of self-consistent calculation

     Convergence has been achieved 


     Representation #   2 modes #   4   5   6

     Self-consistent Calculation

      iter #   1 total cpu time :   594.3 secs   av.it.:   5.9
      thresh= 1.000E-02 alpha_mix =  0.700 |ddv_scf|^2 =  1.086E-08

      iter #   2 total cpu time :   612.8 secs   av.it.:  11.8
      thresh= 1.042E-05 alpha_mix =  0.700 |ddv_scf|^2 =  3.918E-10

      iter #   3 total cpu time :   646.0 secs   av.it.:  11.7
      thresh= 1.979E-06 alpha_mix =  0.700 |ddv_scf|^2 =  1.779E-11

      iter #   4 total cpu time :   680.2 secs   av.it.:  11.8
      thresh= 4.218E-07 alpha_mix =  0.700 |ddv_scf|^2 =  3.178E-14

      iter #   5 total cpu time :   713.8 secs   av.it.:  11.9
      thresh= 1.783E-08 alpha_mix =  0.700 |ddv_scf|^2 =  7.484E-17

     End of self-consistent calculation

     Convergence has been achieved 

     Number of q in the star =    1
     List of q in the star:
          1   0.000000000   0.000000000   0.000000000

          Dielectric constant in cartesian axis 

          (      13.312108325       0.000000000      -0.000000000 )
          (       0.000000000      13.312108325      -0.000000000 )
          (      -0.000000000      -0.000000000      13.312108325 )

          Effective charges (d Force / dE) in cartesian axis without acoustic sum rule applied (asr)

           atom      1   Si Mean Z*:       -0.00677
      Ex  (       -0.00677       -0.00000        0.00000 )
      Ey  (       -0.00000       -0.00677        0.00000 )
      Ez  (       -0.00000        0.00000       -0.00677 )
           atom      2   Si Mean Z*:       -0.00677
      Ex  (       -0.00677       -0.00000       -0.00000 )
      Ey  (       -0.00000       -0.00677        0.00000 )
      Ez  (       -0.00000        0.00000       -0.00677 )

          Effective charges Sum: Mean:       -0.01353
             -0.01353       -0.00000       -0.00000
             -0.00000       -0.01353        0.00000
             -0.00000        0.00000       -0.01353

          Effective charges (d Force / dE) in cartesian axis with asr applied: 
           atom      1   Si Mean Z*:        0.00000
      E*x (        0.00000        0.00000        0.00000 )
      E*y (        0.00000        0.00000       -0.00000 )
      E*z (        0.00000        0.00000        0.00000 )
           atom      2   Si Mean Z*:       -0.00000
      E*x (       -0.00000       -0.00000       -0.00000 )
      E*y (       -0.00000       -0.00000        0.00000 )
      E*z (       -0.00000        0.00000       -0.00000 )

          Effective charges (d P / du) in cartesian axis 

           atom      1   Si 
      Px  (       -0.00683       -0.00000       -0.00000 )
      Py  (        0.00000       -0.00683       -0.00000 )
      Pz  (        0.00000       -0.00000       -0.00683 )
           atom      2   Si 
      Px  (       -0.00683        0.00000        0.00000 )
      Py  (        0.00000       -0.00683       -0.00000 )
      Pz  (        0.00000        0.00000       -0.00683 )

     Diagonalizing the dynamical matrix

     q = (    0.000000000   0.000000000   0.000000000 ) 

 **************************************************************************
     freq (    1) =      -0.108241 [THz] =      -3.610545 [cm-1]
     freq (    2) =      -0.108241 [THz] =      -3.610545 [cm-1]
     freq (    3) =      -0.108241 [THz] =      -3.610545 [cm-1]
     freq (    4) =      15.412118 [THz] =     514.092908 [cm-1]
     freq (    5) =      15.412118 [THz] =     514.092908 [cm-1]
     freq (    6) =      15.412118 [THz] =     514.092908 [cm-1]
 **************************************************************************

     Mode symmetry, O_h (m-3m)  point group:

     freq (   1-   3) =         -3.6  [cm-1]   --> T_1u G_15  G_4- I  
     freq (   4-   6) =        514.1  [cm-1]   --> T_2g G_25' G_5+ R  

     Calculation of q =   -0.1666667   0.1666667  -0.1666667

     Subspace diagonalization in iterative solution of the eigenvalue problem:
     one sub-group per band group will be used
     scalapack distributed-memory algorithm (size of sub-group:  2*  2 procs)


     Parallelization info
     --------------------
     sticks:   dense  smooth     PW     G-vecs:    dense   smooth      PW
     Min         143     143     44                 2981     2981     526
     Max         144     144     45                 2984     2984     529
     Sum        1003    1003    313                20875    20875    3695

     Using Slab Decomposition


     Title: 
     default                                                                    


     bravais-lattice index     =            2
     lattice parameter (alat)  =      10.1899  a.u.
     unit-cell volume          =     264.5151 (a.u.)^3
     number of atoms/cell      =            2
     number of atomic types    =            1
     number of electrons       =         8.00
     number of Kohn-Sham states=            4
     kinetic-energy cutoff     =      70.0000  Ry
     charge density cutoff     =     280.0000  Ry
     Exchange-correlation= PW
                           (   1   4   0   0   0   0   0)

     celldm(1)=  10.189905  celldm(2)=   0.000000  celldm(3)=   0.000000
     celldm(4)=   0.000000  celldm(5)=   0.000000  celldm(6)=   0.000000

     crystal axes: (cart. coord. in units of alat)
               a(1) = (  -0.500000   0.000000   0.500000 )  
               a(2) = (   0.000000   0.500000   0.500000 )  
               a(3) = (  -0.500000   0.500000   0.000000 )  

     reciprocal axes: (cart. coord. in units 2 pi/alat)
               b(1) = ( -1.000000 -1.000000  1.000000 )  
               b(2) = (  1.000000  1.000000  1.000000 )  
               b(3) = ( -1.000000  1.000000 -1.000000 )  


     PseudoPot. # 1 for Si read from file:
     ./pseudos/Si.nc.UPF
     MD5 check sum: 9e2d726316af3d4752eea8ab0afbb951
     Pseudo is Norm-conserving + core correction, Zval =  4.0
     Generated using ONCVPSP code by D. R. Hamann
     Using radial grid of 1510 points,  6 beta functions with: 
                l(1) =   0
                l(2) =   0
                l(3) =   1
                l(4) =   1
                l(5) =   2
                l(6) =   2

     atomic species   valence    mass     pseudopotential
        Si             4.00    28.08550     Si( 1.00)

     48 Sym. Ops., with inversion, found



   Cartesian axes

     site n.     atom                  positions (alat units)
         1           Si  tau(   1) = (   0.0000000   0.0000000   0.0000000  )
         2           Si  tau(   2) = (  -0.2500000   0.2500000   0.2500000  )

     number of k points=   364

     Number of k-points >= 100: set verbosity='high' to print them.

     Dense  grid:    20875 G-vectors     FFT dimensions: (  40,  40,  40)

     Estimated max dynamical RAM per process >       2.83 MB

     Estimated total dynamical RAM >      79.16 MB

     The potential is recalculated from file :
     /fastscratch/tsievers/QE_TMP_DIR/_ph0/si_ph_bench_nk_ompi_4_n_procs_28_1.save/charge-density

     Starting wfcs are    8 atomic wfcs

     Band Structure Calculation
     Davidson diagonalization with overlap

     ethr =  1.25E-10,  avg # of iterations = 12.9

     total cpu time spent up to now is      543.3 secs

     End of band structure calculation

     Number of k-points >= 100: set verbosity='high' to print the bands.

     highest occupied level (ev):     6.1106

     Writing config to output data dir /fastscratch/tsievers/QE_TMP_DIR/_ph0/si_ph_bench_nk_ompi_4_n_procs_28_1.save/

     default                                                                    

     bravais-lattice index     =            2
     lattice parameter (alat)  =      10.1899  a.u.
     unit-cell volume          =     264.5151 (a.u.)^3
     number of atoms/cell      =            2
     number of atomic types    =            1
     kinetic-energy cut-off    =      70.0000  Ry
     charge density cut-off    =     280.0000  Ry
     convergence threshold     =      1.0E-15
     beta                      =       0.7000
     number of iterations used =            4
     Exchange-correlation= PW
                           (   1   4   0   0   0   0   0)


     celldm(1)=   10.18990  celldm(2)=    0.00000  celldm(3)=    0.00000
     celldm(4)=    0.00000  celldm(5)=    0.00000  celldm(6)=    0.00000

     crystal axes: (cart. coord. in units of alat)
               a(1) = ( -0.5000  0.0000  0.5000 )  
               a(2) = (  0.0000  0.5000  0.5000 )  
               a(3) = ( -0.5000  0.5000  0.0000 )  

     reciprocal axes: (cart. coord. in units 2 pi/alat)
               b(1) = ( -1.0000 -1.0000  1.0000 )  
               b(2) = (  1.0000  1.0000  1.0000 )  
               b(3) = ( -1.0000  1.0000 -1.0000 )  


     Atoms inside the unit cell: 

     Cartesian axes

     site n.  atom      mass           positions (alat units)
        1     Si  28.0855   tau(    1) = (    0.00000    0.00000    0.00000  )
        2     Si  28.0855   tau(    2) = (   -0.25000    0.25000    0.25000  )

     Computing dynamical matrix for 
                    q = (  -0.1666667   0.1666667  -0.1666667 )

      6 Sym.Ops. (no q -> -q+G )


     G cutoff =  736.4420  (   2984 G-vectors)     FFT grid: ( 40, 40, 40)
     number of k points=   364

     PseudoPot. # 1 for Si read from file:
     ./pseudos/Si.nc.UPF
     MD5 check sum: 9e2d726316af3d4752eea8ab0afbb951
     Pseudo is Norm-conserving + core correction, Zval =  4.0
     Generated using ONCVPSP code by D. R. Hamann
     Using radial grid of 1510 points,  6 beta functions with: 
                l(1) =   0
                l(2) =   0
                l(3) =   1
                l(4) =   1
                l(5) =   2
                l(6) =   2

     Mode symmetry, C_3v (3m)   point group:


     Atomic displacements:
     There are    4 irreducible representations

     Representation     1      1 modes -  To be done

     Representation     2      1 modes -  To be done

     Representation     3      2 modes -  To be done

     Representation     4      2 modes -  To be done



     Alpha used in Ewald sum =   2.8000
     PHONON       :   6m10.85s CPU  21m 8.70s WALL



     Representation #   1 mode #   1

     Self-consistent Calculation

      iter #   1 total cpu time :  1320.3 secs   av.it.:   6.6
      thresh= 1.000E-02 alpha_mix =  0.700 |ddv_scf|^2 =  1.408E-03

      iter #   2 total cpu time :  1362.1 secs   av.it.:   8.8
      thresh= 3.752E-03 alpha_mix =  0.700 |ddv_scf|^2 =  4.612E-02

      iter #   3 total cpu time :  1419.9 secs   av.it.:   7.7
      thresh= 1.000E-02 alpha_mix =  0.700 |ddv_scf|^2 =  3.756E-07

      iter #   4 total cpu time :  1475.6 secs   av.it.:   9.1
      thresh= 6.129E-05 alpha_mix =  0.700 |ddv_scf|^2 =  1.229E-08

      iter #   5 total cpu time :  1528.9 secs   av.it.:   9.5
      thresh= 1.109E-05 alpha_mix =  0.700 |ddv_scf|^2 =  8.227E-10

      iter #   6 total cpu time :  1590.4 secs   av.it.:   8.3
      thresh= 2.868E-06 alpha_mix =  0.700 |ddv_scf|^2 =  1.446E-09

      iter #   7 total cpu time :  1651.7 secs   av.it.:   8.0
      thresh= 3.803E-06 alpha_mix =  0.700 |ddv_scf|^2 =  8.476E-11

      iter #   8 total cpu time :  1706.1 secs   av.it.:   8.4
      thresh= 9.207E-07 alpha_mix =  0.700 |ddv_scf|^2 =  6.757E-13

      iter #   9 total cpu time :  1767.7 secs   av.it.:   8.2
      thresh= 8.220E-08 alpha_mix =  0.700 |ddv_scf|^2 =  1.523E-14

      iter #  10 total cpu time :  1824.8 secs   av.it.:   8.5
      thresh= 1.234E-08 alpha_mix =  0.700 |ddv_scf|^2 =  1.409E-15

      iter #  11 total cpu time :  1897.1 secs   av.it.:   9.1
      thresh= 3.753E-09 alpha_mix =  0.700 |ddv_scf|^2 =  2.123E-16

     End of self-consistent calculation

     Convergence has been achieved 


     Representation #   2 mode #   2

     Self-consistent Calculation

      iter #   1 total cpu time :  1969.5 secs   av.it.:   6.6
      thresh= 1.000E-02 alpha_mix =  0.700 |ddv_scf|^2 =  1.408E-03

      iter #   2 total cpu time :  2034.5 secs   av.it.:   8.8
      thresh= 3.752E-03 alpha_mix =  0.700 |ddv_scf|^2 =  4.612E-02

      iter #   3 total cpu time :  2092.7 secs   av.it.:   7.7
      thresh= 1.000E-02 alpha_mix =  0.700 |ddv_scf|^2 =  3.756E-07

      iter #   4 total cpu time :  2135.4 secs   av.it.:   9.1
      thresh= 6.129E-05 alpha_mix =  0.700 |ddv_scf|^2 =  1.229E-08

      iter #   5 total cpu time :  2182.5 secs   av.it.:   9.5
      thresh= 1.109E-05 alpha_mix =  0.700 |ddv_scf|^2 =  8.227E-10

      iter #   6 total cpu time :  2238.1 secs   av.it.:   8.3
      thresh= 2.868E-06 alpha_mix =  0.700 |ddv_scf|^2 =  1.446E-09

      iter #   7 total cpu time :  2288.3 secs   av.it.:   8.0
      thresh= 3.803E-06 alpha_mix =  0.700 |ddv_scf|^2 =  8.476E-11

      iter #   8 total cpu time :  2353.2 secs   av.it.:   8.4
      thresh= 9.207E-07 alpha_mix =  0.700 |ddv_scf|^2 =  6.757E-13

      iter #   9 total cpu time :  2415.1 secs   av.it.:   8.2
      thresh= 8.220E-08 alpha_mix =  0.700 |ddv_scf|^2 =  1.523E-14

      iter #  10 total cpu time :  2472.1 secs   av.it.:   8.6
      thresh= 1.234E-08 alpha_mix =  0.700 |ddv_scf|^2 =  1.409E-15

      iter #  11 total cpu time :  2530.5 secs   av.it.:   9.1
      thresh= 3.753E-09 alpha_mix =  0.700 |ddv_scf|^2 =  2.123E-16

     End of self-consistent calculation

     Convergence has been achieved 


     Representation #   3 modes #   3   4

     Self-consistent Calculation

      iter #   1 total cpu time :  2623.4 secs   av.it.:   6.1
      thresh= 1.000E-02 alpha_mix =  0.700 |ddv_scf|^2 =  3.672E-08

      iter #   2 total cpu time :  2757.6 secs   av.it.:  11.5
      thresh= 1.916E-05 alpha_mix =  0.700 |ddv_scf|^2 =  1.634E-09

      iter #   3 total cpu time :  2876.9 secs   av.it.:  11.4
      thresh= 4.042E-06 alpha_mix =  0.700 |ddv_scf|^2 =  4.267E-11

      iter #   4 total cpu time :  2992.8 secs   av.it.:  11.4
      thresh= 6.532E-07 alpha_mix =  0.700 |ddv_scf|^2 =  4.926E-13

      iter #   5 total cpu time :  3133.2 secs   av.it.:  11.4
      thresh= 7.019E-08 alpha_mix =  0.700 |ddv_scf|^2 =  1.047E-14

      iter #   6 total cpu time :  3258.6 secs   av.it.:  11.7
      thresh= 1.023E-08 alpha_mix =  0.700 |ddv_scf|^2 =  4.747E-17

     End of self-consistent calculation

     Convergence has been achieved 


     Representation #   4 modes #   5   6

     Self-consistent Calculation

      iter #   1 total cpu time :  3384.9 secs   av.it.:   5.9
      thresh= 1.000E-02 alpha_mix =  0.700 |ddv_scf|^2 =  3.671E-08

      iter #   2 total cpu time :  3494.5 secs   av.it.:  11.1
      thresh= 1.916E-05 alpha_mix =  0.700 |ddv_scf|^2 =  1.633E-09

      iter #   3 total cpu time :  3601.3 secs   av.it.:  11.0
      thresh= 4.041E-06 alpha_mix =  0.700 |ddv_scf|^2 =  4.267E-11

      iter #   4 total cpu time :  3712.0 secs   av.it.:  11.1
      thresh= 6.532E-07 alpha_mix =  0.700 |ddv_scf|^2 =  4.924E-13

      iter #   5 total cpu time :  3864.8 secs   av.it.:  11.1
      thresh= 7.017E-08 alpha_mix =  0.700 |ddv_scf|^2 =  1.046E-14

      iter #   6 total cpu time :  4014.7 secs   av.it.:  11.4
      thresh= 1.023E-08 alpha_mix =  0.700 |ddv_scf|^2 =  4.760E-17

     End of self-consistent calculation

     Convergence has been achieved 

     Number of q in the star =    8
     List of q in the star:
          1  -0.166666667   0.166666667  -0.166666667
          2   0.166666667   0.166666667   0.166666667
          3  -0.166666667  -0.166666667  -0.166666667
          4   0.166666667  -0.166666667   0.166666667
          5   0.166666667  -0.166666667  -0.166666667
          6   0.166666667   0.166666667  -0.166666667
          7  -0.166666667  -0.166666667   0.166666667
          8  -0.166666667   0.166666667   0.166666667

     Diagonalizing the dynamical matrix

     q = (   -0.166666667   0.166666667  -0.166666667 ) 

 **************************************************************************
     freq (    1) =       2.202654 [THz] =      73.472638 [cm-1]
     freq (    2) =       2.202654 [THz] =      73.472638 [cm-1]
     freq (    3) =       4.748044 [THz] =     158.377685 [cm-1]
     freq (    4) =      15.023893 [THz] =     501.143130 [cm-1]
     freq (    5) =      15.065874 [THz] =     502.543461 [cm-1]
     freq (    6) =      15.065874 [THz] =     502.543461 [cm-1]
 **************************************************************************

     Mode symmetry, C_3v (3m)   point group:

     freq (   1-   2) =         73.5  [cm-1]   --> E    L_3           
     freq (   3-   3) =        158.4  [cm-1]   --> A_1  L_1           
     freq (   4-   4) =        501.1  [cm-1]   --> A_1  L_1           
     freq (   5-   6) =        502.5  [cm-1]   --> E    L_3           

     Calculation of q =   -0.3333333   0.3333333  -0.3333333

     Parallelization info
     --------------------
     sticks:   dense  smooth     PW     G-vecs:    dense   smooth      PW
     Min         143     143     44                 2981     2981     545
     Max         144     144     45                 2984     2984     550
     Sum        1003    1003    313                20875    20875    3839

     Using Slab Decomposition


     Title: 
     default                                                                    


     bravais-lattice index     =            2
     lattice parameter (alat)  =      10.1899  a.u.
     unit-cell volume          =     264.5151 (a.u.)^3
     number of atoms/cell      =            2
     number of atomic types    =            1
     number of electrons       =         8.00
     number of Kohn-Sham states=            4
     kinetic-energy cutoff     =      70.0000  Ry
     charge density cutoff     =     280.0000  Ry
     Exchange-correlation= PW
                           (   1   4   0   0   0   0   0)

     celldm(1)=  10.189905  celldm(2)=   0.000000  celldm(3)=   0.000000
     celldm(4)=   0.000000  celldm(5)=   0.000000  celldm(6)=   0.000000

     crystal axes: (cart. coord. in units of alat)
               a(1) = (  -0.500000   0.000000   0.500000 )  
               a(2) = (   0.000000   0.500000   0.500000 )  
               a(3) = (  -0.500000   0.500000   0.000000 )  

     reciprocal axes: (cart. coord. in units 2 pi/alat)
               b(1) = ( -1.000000 -1.000000  1.000000 )  
               b(2) = (  1.000000  1.000000  1.000000 )  
               b(3) = ( -1.000000  1.000000 -1.000000 )  


     PseudoPot. # 1 for Si read from file:
     ./pseudos/Si.nc.UPF
     MD5 check sum: 9e2d726316af3d4752eea8ab0afbb951
     Pseudo is Norm-conserving + core correction, Zval =  4.0
     Generated using ONCVPSP code by D. R. Hamann
     Using radial grid of 1510 points,  6 beta functions with: 
                l(1) =   0
                l(2) =   0
                l(3) =   1
                l(4) =   1
                l(5) =   2
                l(6) =   2

     atomic species   valence    mass     pseudopotential
        Si             4.00    28.08550     Si( 1.00)

     48 Sym. Ops., with inversion, found



   Cartesian axes

     site n.     atom                  positions (alat units)
         1           Si  tau(   1) = (   0.0000000   0.0000000   0.0000000  )
         2           Si  tau(   2) = (  -0.2500000   0.2500000   0.2500000  )

     number of k points=   364

     Number of k-points >= 100: set verbosity='high' to print them.

     Dense  grid:    20875 G-vectors     FFT dimensions: (  40,  40,  40)

     Estimated max dynamical RAM per process >       2.84 MB

     Estimated total dynamical RAM >      79.55 MB

     The potential is recalculated from file :
     /fastscratch/tsievers/QE_TMP_DIR/_ph0/si_ph_bench_nk_ompi_4_n_procs_28_1.save/charge-density

     Starting wfcs are    8 atomic wfcs

     Band Structure Calculation
     Davidson diagonalization with overlap

     ethr =  1.25E-10,  avg # of iterations = 12.9

     total cpu time spent up to now is     1101.6 secs

     End of band structure calculation

     Number of k-points >= 100: set verbosity='high' to print the bands.

     highest occupied level (ev):     6.1106

     Writing config to output data dir /fastscratch/tsievers/QE_TMP_DIR/_ph0/si_ph_bench_nk_ompi_4_n_procs_28_1.save/

     default                                                                    

     bravais-lattice index     =            2
     lattice parameter (alat)  =      10.1899  a.u.
     unit-cell volume          =     264.5151 (a.u.)^3
     number of atoms/cell      =            2
     number of atomic types    =            1
     kinetic-energy cut-off    =      70.0000  Ry
     charge density cut-off    =     280.0000  Ry
     convergence threshold     =      1.0E-15
     beta                      =       0.7000
     number of iterations used =            4
     Exchange-correlation= PW
                           (   1   4   0   0   0   0   0)


     celldm(1)=   10.18990  celldm(2)=    0.00000  celldm(3)=    0.00000
     celldm(4)=    0.00000  celldm(5)=    0.00000  celldm(6)=    0.00000

     crystal axes: (cart. coord. in units of alat)
               a(1) = ( -0.5000  0.0000  0.5000 )  
               a(2) = (  0.0000  0.5000  0.5000 )  
               a(3) = ( -0.5000  0.5000  0.0000 )  

     reciprocal axes: (cart. coord. in units 2 pi/alat)
               b(1) = ( -1.0000 -1.0000  1.0000 )  
               b(2) = (  1.0000  1.0000  1.0000 )  
               b(3) = ( -1.0000  1.0000 -1.0000 )  


     Atoms inside the unit cell: 

     Cartesian axes

     site n.  atom      mass           positions (alat units)
        1     Si  28.0855   tau(    1) = (    0.00000    0.00000    0.00000  )
        2     Si  28.0855   tau(    2) = (   -0.25000    0.25000    0.25000  )

     Computing dynamical matrix for 
                    q = (  -0.3333333   0.3333333  -0.3333333 )

      6 Sym.Ops. (no q -> -q+G )


     G cutoff =  736.4420  (   2984 G-vectors)     FFT grid: ( 40, 40, 40)
     number of k points=   364

     PseudoPot. # 1 for Si read from file:
     ./pseudos/Si.nc.UPF
     MD5 check sum: 9e2d726316af3d4752eea8ab0afbb951
     Pseudo is Norm-conserving + core correction, Zval =  4.0
     Generated using ONCVPSP code by D. R. Hamann
     Using radial grid of 1510 points,  6 beta functions with: 
                l(1) =   0
                l(2) =   0
                l(3) =   1
                l(4) =   1
                l(5) =   2
                l(6) =   2

     Mode symmetry, C_3v (3m)   point group:


     Atomic displacements:
     There are    4 irreducible representations

     Representation     1      1 modes -  To be done

     Representation     2      1 modes -  To be done

     Representation     3      2 modes -  To be done

     Representation     4      2 modes -  To be done



     Alpha used in Ewald sum =   2.8000
     PHONON       :  22m20.61s CPU      1h16m WALL



     Representation #   1 mode #   1

     Self-consistent Calculation

      iter #   1 total cpu time :  4664.8 secs   av.it.:   6.5
      thresh= 1.000E-02 alpha_mix =  0.700 |ddv_scf|^2 =  8.913E-05

      iter #   2 total cpu time :  4724.5 secs   av.it.:   9.7
      thresh= 9.441E-04 alpha_mix =  0.700 |ddv_scf|^2 =  7.113E-04

      iter #   3 total cpu time :  4783.7 secs   av.it.:   8.3
      thresh= 2.667E-03 alpha_mix =  0.700 |ddv_scf|^2 =  1.309E-07

      iter #   4 total cpu time :  4835.2 secs   av.it.:   9.9
      thresh= 3.619E-05 alpha_mix =  0.700 |ddv_scf|^2 =  2.660E-09

      iter #   5 total cpu time :  4897.8 secs   av.it.:   9.9
      thresh= 5.158E-06 alpha_mix =  0.700 |ddv_scf|^2 =  2.820E-11

      iter #   6 total cpu time :  4944.0 secs   av.it.:  10.5
      thresh= 5.310E-07 alpha_mix =  0.700 |ddv_scf|^2 =  2.913E-12

      iter #   7 total cpu time :  5020.1 secs   av.it.:  10.3
      thresh= 1.707E-07 alpha_mix =  0.700 |ddv_scf|^2 =  2.236E-12

      iter #   8 total cpu time :  5086.1 secs   av.it.:   9.4
      thresh= 1.495E-07 alpha_mix =  0.700 |ddv_scf|^2 =  2.237E-12

      iter #   9 total cpu time :  5153.9 secs   av.it.:   9.0
      thresh= 1.496E-07 alpha_mix =  0.700 |ddv_scf|^2 =  2.928E-13

      iter #  10 total cpu time :  5218.5 secs   av.it.:   9.0
      thresh= 5.411E-08 alpha_mix =  0.700 |ddv_scf|^2 =  1.831E-15

      iter #  11 total cpu time :  5269.2 secs   av.it.:   9.7
      thresh= 4.279E-09 alpha_mix =  0.700 |ddv_scf|^2 =  1.703E-16

     End of self-consistent calculation

     Convergence has been achieved 


     Representation #   2 mode #   2

     Self-consistent Calculation

      iter #   1 total cpu time :  5352.9 secs   av.it.:   6.5
      thresh= 1.000E-02 alpha_mix =  0.700 |ddv_scf|^2 =  8.913E-05

      iter #   2 total cpu time :  5399.9 secs   av.it.:   9.7
      thresh= 9.441E-04 alpha_mix =  0.700 |ddv_scf|^2 =  7.113E-04

      iter #   3 total cpu time :  5457.5 secs   av.it.:   8.3
      thresh= 2.667E-03 alpha_mix =  0.700 |ddv_scf|^2 =  1.309E-07

      iter #   4 total cpu time :  5523.2 secs   av.it.:   9.9
      thresh= 3.619E-05 alpha_mix =  0.700 |ddv_scf|^2 =  2.660E-09

      iter #   5 total cpu time :  5584.0 secs   av.it.:   9.9
      thresh= 5.158E-06 alpha_mix =  0.700 |ddv_scf|^2 =  2.820E-11

      iter #   6 total cpu time :  5647.8 secs   av.it.:  10.5
      thresh= 5.310E-07 alpha_mix =  0.700 |ddv_scf|^2 =  2.913E-12

      iter #   7 total cpu time :  5714.6 secs   av.it.:  10.3
      thresh= 1.707E-07 alpha_mix =  0.700 |ddv_scf|^2 =  2.236E-12

      iter #   8 total cpu time :  5779.7 secs   av.it.:   9.4
      thresh= 1.495E-07 alpha_mix =  0.700 |ddv_scf|^2 =  2.237E-12

      iter #   9 total cpu time :  5837.3 secs   av.it.:   9.0
      thresh= 1.496E-07 alpha_mix =  0.700 |ddv_scf|^2 =  2.928E-13

      iter #  10 total cpu time :  5884.4 secs   av.it.:   9.0
      thresh= 5.411E-08 alpha_mix =  0.700 |ddv_scf|^2 =  1.831E-15

      iter #  11 total cpu time :  5937.8 secs   av.it.:   9.7
      thresh= 4.279E-09 alpha_mix =  0.700 |ddv_scf|^2 =  1.703E-16

     End of self-consistent calculation

     Convergence has been achieved 


     Representation #   3 modes #   3   4

     Self-consistent Calculation

      iter #   1 total cpu time :  6017.9 secs   av.it.:   6.1
      thresh= 1.000E-02 alpha_mix =  0.700 |ddv_scf|^2 =  5.003E-08

      iter #   2 total cpu time :  6131.7 secs   av.it.:  11.4
      thresh= 2.237E-05 alpha_mix =  0.700 |ddv_scf|^2 =  3.470E-09

      iter #   3 total cpu time :  6247.9 secs   av.it.:  11.3
      thresh= 5.890E-06 alpha_mix =  0.700 |ddv_scf|^2 =  5.012E-11

      iter #   4 total cpu time :  6334.9 secs   av.it.:  11.4
      thresh= 7.080E-07 alpha_mix =  0.700 |ddv_scf|^2 =  5.037E-13

      iter #   5 total cpu time :  6465.8 secs   av.it.:  11.4
      thresh= 7.097E-08 alpha_mix =  0.700 |ddv_scf|^2 =  9.787E-15

      iter #   6 total cpu time :  6600.9 secs   av.it.:  11.6
      thresh= 9.893E-09 alpha_mix =  0.700 |ddv_scf|^2 =  6.652E-17

     End of self-consistent calculation

     Convergence has been achieved 


     Representation #   4 modes #   5   6

     Self-consistent Calculation

      iter #   1 total cpu time :  6690.3 secs   av.it.:   6.0
      thresh= 1.000E-02 alpha_mix =  0.700 |ddv_scf|^2 =  5.001E-08

      iter #   2 total cpu time :  6770.5 secs   av.it.:  11.1
      thresh= 2.236E-05 alpha_mix =  0.700 |ddv_scf|^2 =  3.466E-09

      iter #   3 total cpu time :  6879.9 secs   av.it.:  10.9
      thresh= 5.887E-06 alpha_mix =  0.700 |ddv_scf|^2 =  5.014E-11

      iter #   4 total cpu time :  7012.0 secs   av.it.:  11.1
      thresh= 7.081E-07 alpha_mix =  0.700 |ddv_scf|^2 =  5.032E-13

      iter #   5 total cpu time :  7106.8 secs   av.it.:  11.1
      thresh= 7.094E-08 alpha_mix =  0.700 |ddv_scf|^2 =  9.784E-15

      iter #   6 total cpu time :  7234.8 secs   av.it.:  11.3
      thresh= 9.892E-09 alpha_mix =  0.700 |ddv_scf|^2 =  6.667E-17

     End of self-consistent calculation

     Convergence has been achieved 

     Number of q in the star =    8
     List of q in the star:
          1  -0.333333333   0.333333333  -0.333333333
          2   0.333333333   0.333333333   0.333333333
          3  -0.333333333  -0.333333333  -0.333333333
          4   0.333333333  -0.333333333   0.333333333
          5   0.333333333  -0.333333333  -0.333333333
          6   0.333333333   0.333333333  -0.333333333
          7  -0.333333333  -0.333333333   0.333333333
          8  -0.333333333   0.333333333   0.333333333

     Diagonalizing the dynamical matrix

     q = (   -0.333333333   0.333333333  -0.333333333 ) 

 **************************************************************************
     freq (    1) =       3.044036 [THz] =     101.538125 [cm-1]
     freq (    2) =       3.044036 [THz] =     101.538125 [cm-1]
     freq (    3) =       8.747620 [THz] =     291.789198 [cm-1]
     freq (    4) =      13.856980 [THz] =     462.219100 [cm-1]
     freq (    5) =      14.763285 [THz] =     492.450185 [cm-1]
     freq (    6) =      14.763285 [THz] =     492.450185 [cm-1]
 **************************************************************************

     Mode symmetry, C_3v (3m)   point group:

     freq (   1-   2) =        101.5  [cm-1]   --> E    L_3           
     freq (   3-   3) =        291.8  [cm-1]   --> A_1  L_1           
     freq (   4-   4) =        462.2  [cm-1]   --> A_1  L_1           
     freq (   5-   6) =        492.5  [cm-1]   --> E    L_3           

     Calculation of q =    0.5000000  -0.5000000   0.5000000

     Parallelization info
     --------------------
     sticks:   dense  smooth     PW     G-vecs:    dense   smooth      PW
     Min         143     143     48                 2981     2981     572
     Max         144     144     49                 2984     2984     574
     Sum        1003    1003    337                20875    20875    4015

     Using Slab Decomposition


     Title: 
     default                                                                    


     bravais-lattice index     =            2
     lattice parameter (alat)  =      10.1899  a.u.
     unit-cell volume          =     264.5151 (a.u.)^3
     number of atoms/cell      =            2
     number of atomic types    =            1
     number of electrons       =         8.00
     number of Kohn-Sham states=            4
     kinetic-energy cutoff     =      70.0000  Ry
     charge density cutoff     =     280.0000  Ry
     Exchange-correlation= PW
                           (   1   4   0   0   0   0   0)

     celldm(1)=  10.189905  celldm(2)=   0.000000  celldm(3)=   0.000000
     celldm(4)=   0.000000  celldm(5)=   0.000000  celldm(6)=   0.000000

     crystal axes: (cart. coord. in units of alat)
               a(1) = (  -0.500000   0.000000   0.500000 )  
               a(2) = (   0.000000   0.500000   0.500000 )  
               a(3) = (  -0.500000   0.500000   0.000000 )  

     reciprocal axes: (cart. coord. in units 2 pi/alat)
               b(1) = ( -1.000000 -1.000000  1.000000 )  
               b(2) = (  1.000000  1.000000  1.000000 )  
               b(3) = ( -1.000000  1.000000 -1.000000 )  


     PseudoPot. # 1 for Si read from file:
     ./pseudos/Si.nc.UPF
     MD5 check sum: 9e2d726316af3d4752eea8ab0afbb951
     Pseudo is Norm-conserving + core correction, Zval =  4.0
     Generated using ONCVPSP code by D. R. Hamann
     Using radial grid of 1510 points,  6 beta functions with: 
                l(1) =   0
                l(2) =   0
                l(3) =   1
                l(4) =   1
                l(5) =   2
                l(6) =   2

     atomic species   valence    mass     pseudopotential
        Si             4.00    28.08550     Si( 1.00)

     48 Sym. Ops., with inversion, found



   Cartesian axes

     site n.     atom                  positions (alat units)
         1           Si  tau(   1) = (   0.0000000   0.0000000   0.0000000  )
         2           Si  tau(   2) = (  -0.2500000   0.2500000   0.2500000  )

     number of k points=   182

     Number of k-points >= 100: set verbosity='high' to print them.

     Dense  grid:    20875 G-vectors     FFT dimensions: (  40,  40,  40)

     Estimated max dynamical RAM per process >       2.86 MB

     Estimated total dynamical RAM >      79.95 MB

     The potential is recalculated from file :
     /fastscratch/tsievers/QE_TMP_DIR/_ph0/si_ph_bench_nk_ompi_4_n_procs_28_1.save/charge-density

     Starting wfcs are    8 atomic wfcs

     Band Structure Calculation
     Davidson diagonalization with overlap

     ethr =  1.25E-10,  avg # of iterations = 12.9

     total cpu time spent up to now is     1338.3 secs

     End of band structure calculation

     Number of k-points >= 100: set verbosity='high' to print the bands.

     highest occupied level (ev):     6.1106

     Writing config to output data dir /fastscratch/tsievers/QE_TMP_DIR/_ph0/si_ph_bench_nk_ompi_4_n_procs_28_1.save/

     default                                                                    

     bravais-lattice index     =            2
     lattice parameter (alat)  =      10.1899  a.u.
     unit-cell volume          =     264.5151 (a.u.)^3
     number of atoms/cell      =            2
     number of atomic types    =            1
     kinetic-energy cut-off    =      70.0000  Ry
     charge density cut-off    =     280.0000  Ry
     convergence threshold     =      1.0E-15
     beta                      =       0.7000
     number of iterations used =            4
     Exchange-correlation= PW
                           (   1   4   0   0   0   0   0)


     celldm(1)=   10.18990  celldm(2)=    0.00000  celldm(3)=    0.00000
     celldm(4)=    0.00000  celldm(5)=    0.00000  celldm(6)=    0.00000

     crystal axes: (cart. coord. in units of alat)
               a(1) = ( -0.5000  0.0000  0.5000 )  
               a(2) = (  0.0000  0.5000  0.5000 )  
               a(3) = ( -0.5000  0.5000  0.0000 )  

     reciprocal axes: (cart. coord. in units 2 pi/alat)
               b(1) = ( -1.0000 -1.0000  1.0000 )  
               b(2) = (  1.0000  1.0000  1.0000 )  
               b(3) = ( -1.0000  1.0000 -1.0000 )  


     Atoms inside the unit cell: 

     Cartesian axes

     site n.  atom      mass           positions (alat units)
        1     Si  28.0855   tau(    1) = (    0.00000    0.00000    0.00000  )
        2     Si  28.0855   tau(    2) = (   -0.25000    0.25000    0.25000  )

     Computing dynamical matrix for 
                    q = (   0.5000000  -0.5000000   0.5000000 )

     13 Sym.Ops. (with q -> -q+G )


     G cutoff =  736.4420  (   2984 G-vectors)     FFT grid: ( 40, 40, 40)
     number of k points=   182

     PseudoPot. # 1 for Si read from file:
     ./pseudos/Si.nc.UPF
     MD5 check sum: 9e2d726316af3d4752eea8ab0afbb951
     Pseudo is Norm-conserving + core correction, Zval =  4.0
     Generated using ONCVPSP code by D. R. Hamann
     Using radial grid of 1510 points,  6 beta functions with: 
                l(1) =   0
                l(2) =   0
                l(3) =   1
                l(4) =   1
                l(5) =   2
                l(6) =   2


     Atomic displacements:
     There are    4 irreducible representations

     Representation     1      1 modes -  To be done

     Representation     2      1 modes -  To be done

     Representation     3      2 modes -  To be done

     Representation     4      2 modes -  To be done



     Alpha used in Ewald sum =   2.8000
     PHONON       :  36m20.37s CPU      2h 4m WALL



     Representation #   1 mode #   1

     Self-consistent Calculation

      iter #   1 total cpu time :  7491.9 secs   av.it.:   5.8
      thresh= 1.000E-02 alpha_mix =  0.700 |ddv_scf|^2 =  2.851E-06

      iter #   2 total cpu time :  7517.6 secs   av.it.:   9.9
      thresh= 1.689E-04 alpha_mix =  0.700 |ddv_scf|^2 =  2.631E-06

      iter #   3 total cpu time :  7547.0 secs   av.it.:   9.3
      thresh= 1.622E-04 alpha_mix =  0.700 |ddv_scf|^2 =  3.517E-10

      iter #   4 total cpu time :  7578.3 secs   av.it.:  10.1
      thresh= 1.875E-06 alpha_mix =  0.700 |ddv_scf|^2 =  6.040E-12

      iter #   5 total cpu time :  7623.4 secs   av.it.:   9.8
      thresh= 2.458E-07 alpha_mix =  0.700 |ddv_scf|^2 =  8.684E-14

      iter #   6 total cpu time :  7649.5 secs   av.it.:   9.8
      thresh= 2.947E-08 alpha_mix =  0.700 |ddv_scf|^2 =  1.137E-15

      iter #   7 total cpu time :  7671.1 secs   av.it.:   9.8
      thresh= 3.373E-09 alpha_mix =  0.700 |ddv_scf|^2 =  3.895E-18

     End of self-consistent calculation

     Convergence has been achieved 


     Representation #   2 mode #   2

     Self-consistent Calculation

      iter #   1 total cpu time :  7721.1 secs   av.it.:   6.7
      thresh= 1.000E-02 alpha_mix =  0.700 |ddv_scf|^2 =  4.356E-05

      iter #   2 total cpu time :  7743.9 secs   av.it.:  10.0
      thresh= 6.600E-04 alpha_mix =  0.700 |ddv_scf|^2 =  1.423E-04

      iter #   3 total cpu time :  7759.0 secs   av.it.:   9.0
      thresh= 1.193E-03 alpha_mix =  0.700 |ddv_scf|^2 =  8.430E-09

      iter #   4 total cpu time :  7784.2 secs   av.it.:   9.8
      thresh= 9.181E-06 alpha_mix =  0.700 |ddv_scf|^2 =  1.767E-10

      iter #   5 total cpu time :  7803.5 secs   av.it.:  10.4
      thresh= 1.329E-06 alpha_mix =  0.700 |ddv_scf|^2 =  8.749E-12

      iter #   6 total cpu time :  7831.7 secs   av.it.:  10.1
      thresh= 2.958E-07 alpha_mix =  0.700 |ddv_scf|^2 =  2.427E-13

      iter #   7 total cpu time :  7872.7 secs   av.it.:   9.4
      thresh= 4.927E-08 alpha_mix =  0.700 |ddv_scf|^2 =  6.371E-17

     End of self-consistent calculation

     Convergence has been achieved 


     Representation #   3 modes #   3   4

     Self-consistent Calculation

      iter #   1 total cpu time :  7907.0 secs   av.it.:   6.0
      thresh= 1.000E-02 alpha_mix =  0.700 |ddv_scf|^2 =  1.007E-07

      iter #   2 total cpu time :  7983.6 secs   av.it.:  11.3
      thresh= 3.173E-05 alpha_mix =  0.700 |ddv_scf|^2 =  8.535E-09

      iter #   3 total cpu time :  8031.0 secs   av.it.:  11.1
      thresh= 9.238E-06 alpha_mix =  0.700 |ddv_scf|^2 =  5.714E-11

      iter #   4 total cpu time :  8066.8 secs   av.it.:  11.1
      thresh= 7.559E-07 alpha_mix =  0.700 |ddv_scf|^2 =  6.391E-14

      iter #   5 total cpu time :  8130.7 secs   av.it.:  11.3
      thresh= 2.528E-08 alpha_mix =  0.700 |ddv_scf|^2 =  8.386E-16

     End of self-consistent calculation

     Convergence has been achieved 


     Representation #   4 modes #   5   6

     Self-consistent Calculation

      iter #   1 total cpu time :  8199.6 secs   av.it.:   5.5
      thresh= 1.000E-02 alpha_mix =  0.700 |ddv_scf|^2 =  1.144E-08

      iter #   2 total cpu time :  8246.7 secs   av.it.:  11.2
      thresh= 1.069E-05 alpha_mix =  0.700 |ddv_scf|^2 =  3.007E-10

      iter #   3 total cpu time :  8315.2 secs   av.it.:  11.2
      thresh= 1.734E-06 alpha_mix =  0.700 |ddv_scf|^2 =  1.849E-11

      iter #   4 total cpu time :  8392.4 secs   av.it.:  11.3
      thresh= 4.300E-07 alpha_mix =  0.700 |ddv_scf|^2 =  7.857E-14

      iter #   5 total cpu time :  8461.0 secs   av.it.:  11.2
      thresh= 2.803E-08 alpha_mix =  0.700 |ddv_scf|^2 =  1.259E-15

      iter #   6 total cpu time :  8544.4 secs   av.it.:  11.3
      thresh= 3.548E-09 alpha_mix =  0.700 |ddv_scf|^2 =  2.525E-18

     End of self-consistent calculation

     Convergence has been achieved 

     Number of q in the star =    4
     List of q in the star:
          1   0.500000000  -0.500000000   0.500000000
          2   0.500000000   0.500000000   0.500000000
          3  -0.500000000   0.500000000   0.500000000
          4   0.500000000   0.500000000  -0.500000000

     Diagonalizing the dynamical matrix

     q = (    0.500000000  -0.500000000   0.500000000 ) 

 **************************************************************************
     freq (    1) =       3.158249 [THz] =     105.347850 [cm-1]
     freq (    2) =       3.158249 [THz] =     105.347850 [cm-1]
     freq (    3) =      11.168961 [THz] =     372.556431 [cm-1]
     freq (    4) =      12.390681 [THz] =     413.308635 [cm-1]
     freq (    5) =      14.704251 [THz] =     490.481014 [cm-1]
     freq (    6) =      14.704251 [THz] =     490.481014 [cm-1]
 **************************************************************************

     Calculation of q =    0.0000000   0.3333333   0.0000000

     Parallelization info
     --------------------
     sticks:   dense  smooth     PW     G-vecs:    dense   smooth      PW
     Min         143     143     44                 2981     2981     529
     Max         144     144     45                 2984     2984     532
     Sum        1003    1003    313                20875    20875    3719

     Using Slab Decomposition


     Title: 
     default                                                                    


     bravais-lattice index     =            2
     lattice parameter (alat)  =      10.1899  a.u.
     unit-cell volume          =     264.5151 (a.u.)^3
     number of atoms/cell      =            2
     number of atomic types    =            1
     number of electrons       =         8.00
     number of Kohn-Sham states=            4
     kinetic-energy cutoff     =      70.0000  Ry
     charge density cutoff     =     280.0000  Ry
     Exchange-correlation= PW
                           (   1   4   0   0   0   0   0)

     celldm(1)=  10.189905  celldm(2)=   0.000000  celldm(3)=   0.000000
     celldm(4)=   0.000000  celldm(5)=   0.000000  celldm(6)=   0.000000

     crystal axes: (cart. coord. in units of alat)
               a(1) = (  -0.500000   0.000000   0.500000 )  
               a(2) = (   0.000000   0.500000   0.500000 )  
               a(3) = (  -0.500000   0.500000   0.000000 )  

     reciprocal axes: (cart. coord. in units 2 pi/alat)
               b(1) = ( -1.000000 -1.000000  1.000000 )  
               b(2) = (  1.000000  1.000000  1.000000 )  
               b(3) = ( -1.000000  1.000000 -1.000000 )  


     PseudoPot. # 1 for Si read from file:
     ./pseudos/Si.nc.UPF
     MD5 check sum: 9e2d726316af3d4752eea8ab0afbb951
     Pseudo is Norm-conserving + core correction, Zval =  4.0
     Generated using ONCVPSP code by D. R. Hamann
     Using radial grid of 1510 points,  6 beta functions with: 
                l(1) =   0
                l(2) =   0
                l(3) =   1
                l(4) =   1
                l(5) =   2
                l(6) =   2

     atomic species   valence    mass     pseudopotential
        Si             4.00    28.08550     Si( 1.00)

     48 Sym. Ops., with inversion, found



   Cartesian axes

     site n.     atom                  positions (alat units)
         1           Si  tau(   1) = (   0.0000000   0.0000000   0.0000000  )
         2           Si  tau(   2) = (  -0.2500000   0.2500000   0.2500000  )

     number of k points=   252

     Number of k-points >= 100: set verbosity='high' to print them.

     Dense  grid:    20875 G-vectors     FFT dimensions: (  40,  40,  40)

     Estimated max dynamical RAM per process >       2.83 MB

     Estimated total dynamical RAM >      79.21 MB

     The potential is recalculated from file :
     /fastscratch/tsievers/QE_TMP_DIR/_ph0/si_ph_bench_nk_ompi_4_n_procs_28_1.save/charge-density

     Starting wfcs are    8 atomic wfcs

     Band Structure Calculation
     Davidson diagonalization with overlap

     ethr =  1.25E-10,  avg # of iterations = 12.8

     total cpu time spent up to now is     1641.9 secs

     End of band structure calculation

     Number of k-points >= 100: set verbosity='high' to print the bands.

     highest occupied level (ev):     6.1106

     Writing config to output data dir /fastscratch/tsievers/QE_TMP_DIR/_ph0/si_ph_bench_nk_ompi_4_n_procs_28_1.save/

     default                                                                    

     bravais-lattice index     =            2
     lattice parameter (alat)  =      10.1899  a.u.
     unit-cell volume          =     264.5151 (a.u.)^3
     number of atoms/cell      =            2
     number of atomic types    =            1
     kinetic-energy cut-off    =      70.0000  Ry
     charge density cut-off    =     280.0000  Ry
     convergence threshold     =      1.0E-15
     beta                      =       0.7000
     number of iterations used =            4
     Exchange-correlation= PW
                           (   1   4   0   0   0   0   0)


     celldm(1)=   10.18990  celldm(2)=    0.00000  celldm(3)=    0.00000
     celldm(4)=    0.00000  celldm(5)=    0.00000  celldm(6)=    0.00000

     crystal axes: (cart. coord. in units of alat)
               a(1) = ( -0.5000  0.0000  0.5000 )  
               a(2) = (  0.0000  0.5000  0.5000 )  
               a(3) = ( -0.5000  0.5000  0.0000 )  

     reciprocal axes: (cart. coord. in units 2 pi/alat)
               b(1) = ( -1.0000 -1.0000  1.0000 )  
               b(2) = (  1.0000  1.0000  1.0000 )  
               b(3) = ( -1.0000  1.0000 -1.0000 )  


     Atoms inside the unit cell: 

     Cartesian axes

     site n.  atom      mass           positions (alat units)
        1     Si  28.0855   tau(    1) = (    0.00000    0.00000    0.00000  )
        2     Si  28.0855   tau(    2) = (   -0.25000    0.25000    0.25000  )

     Computing dynamical matrix for 
                    q = (   0.0000000   0.3333333   0.0000000 )

      8 Sym.Ops. (no q -> -q+G )


     G cutoff =  736.4420  (   2984 G-vectors)     FFT grid: ( 40, 40, 40)
     number of k points=   252

     PseudoPot. # 1 for Si read from file:
     ./pseudos/Si.nc.UPF
     MD5 check sum: 9e2d726316af3d4752eea8ab0afbb951
     Pseudo is Norm-conserving + core correction, Zval =  4.0
     Generated using ONCVPSP code by D. R. Hamann
     Using radial grid of 1510 points,  6 beta functions with: 
                l(1) =   0
                l(2) =   0
                l(3) =   1
                l(4) =   1
                l(5) =   2
                l(6) =   2

     Mode symmetry, C_4v (4mm)  point group:


     Atomic displacements:
     There are    4 irreducible representations

     Representation     1      1 modes -  To be done

     Representation     2      1 modes -  To be done

     Representation     3      2 modes -  To be done

     Representation     4      2 modes -  To be done



     Alpha used in Ewald sum =   2.8000
     PHONON       :  43m 2.19s CPU      2h27m WALL



     Representation #   1 mode #   1

     Self-consistent Calculation

      iter #   1 total cpu time :  8877.9 secs   av.it.:   6.8
      thresh= 1.000E-02 alpha_mix =  0.700 |ddv_scf|^2 =  1.891E-03

      iter #   2 total cpu time :  8913.8 secs   av.it.:   9.1
      thresh= 4.348E-03 alpha_mix =  0.700 |ddv_scf|^2 =  5.765E-02

      iter #   3 total cpu time :  8937.3 secs   av.it.:   8.1
      thresh= 1.000E-02 alpha_mix =  0.700 |ddv_scf|^2 =  5.311E-08

      iter #   4 total cpu time :  8963.2 secs   av.it.:   9.0
      thresh= 2.305E-05 alpha_mix =  0.700 |ddv_scf|^2 =  2.501E-09

      iter #   5 total cpu time :  8984.3 secs   av.it.:   8.6
      thresh= 5.001E-06 alpha_mix =  0.700 |ddv_scf|^2 =  8.157E-10

      iter #   6 total cpu time :  9019.8 secs   av.it.:   8.2
      thresh= 2.856E-06 alpha_mix =  0.700 |ddv_scf|^2 =  1.075E-12

      iter #   7 total cpu time :  9055.4 secs   av.it.:   8.5
      thresh= 1.037E-07 alpha_mix =  0.700 |ddv_scf|^2 =  2.521E-14

      iter #   8 total cpu time :  9092.9 secs   av.it.:   8.4
      thresh= 1.588E-08 alpha_mix =  0.700 |ddv_scf|^2 =  3.237E-16

     End of self-consistent calculation

     Convergence has been achieved 


     Representation #   2 mode #   2

     Self-consistent Calculation

      iter #   1 total cpu time :  9130.7 secs   av.it.:   5.9
      thresh= 1.000E-02 alpha_mix =  0.700 |ddv_scf|^2 =  2.886E-07

      iter #   2 total cpu time :  9175.0 secs   av.it.:  10.5
      thresh= 5.372E-05 alpha_mix =  0.700 |ddv_scf|^2 =  4.667E-08

      iter #   3 total cpu time :  9210.3 secs   av.it.:  10.2
      thresh= 2.160E-05 alpha_mix =  0.700 |ddv_scf|^2 =  5.902E-10

      iter #   4 total cpu time :  9251.4 secs   av.it.:  10.4
      thresh= 2.429E-06 alpha_mix =  0.700 |ddv_scf|^2 =  2.452E-11

      iter #   5 total cpu time :  9300.7 secs   av.it.:  10.4
      thresh= 4.951E-07 alpha_mix =  0.700 |ddv_scf|^2 =  5.585E-14

      iter #   6 total cpu time :  9343.7 secs   av.it.:  10.5
      thresh= 2.363E-08 alpha_mix =  0.700 |ddv_scf|^2 =  1.116E-15

      iter #   7 total cpu time :  9378.6 secs   av.it.:  10.5
      thresh= 3.340E-09 alpha_mix =  0.700 |ddv_scf|^2 =  2.604E-17

     End of self-consistent calculation

     Convergence has been achieved 


     Representation #   3 modes #   3   4

     Self-consistent Calculation

      iter #   1 total cpu time :  9446.9 secs   av.it.:   6.0
      thresh= 1.000E-02 alpha_mix =  0.700 |ddv_scf|^2 =  5.223E-08

      iter #   2 total cpu time :  9535.6 secs   av.it.:  11.4
      thresh= 2.285E-05 alpha_mix =  0.700 |ddv_scf|^2 =  4.761E-09

      iter #   3 total cpu time :  9623.2 secs   av.it.:  11.1
      thresh= 6.900E-06 alpha_mix =  0.700 |ddv_scf|^2 =  5.550E-11

      iter #   4 total cpu time :  9734.0 secs   av.it.:  11.3
      thresh= 7.450E-07 alpha_mix =  0.700 |ddv_scf|^2 =  6.242E-13

      iter #   5 total cpu time :  9803.3 secs   av.it.:  11.2
      thresh= 7.901E-08 alpha_mix =  0.700 |ddv_scf|^2 =  1.036E-14

      iter #   6 total cpu time :  9885.7 secs   av.it.:  11.6
      thresh= 1.018E-08 alpha_mix =  0.700 |ddv_scf|^2 =  4.223E-17

     End of self-consistent calculation

     Convergence has been achieved 


     Representation #   4 modes #   5   6

     Self-consistent Calculation

      iter #   1 total cpu time :  9975.0 secs   av.it.:   6.1
      thresh= 1.000E-02 alpha_mix =  0.700 |ddv_scf|^2 =  6.887E-08

      iter #   2 total cpu time : 10064.1 secs   av.it.:  11.3
      thresh= 2.624E-05 alpha_mix =  0.700 |ddv_scf|^2 =  6.497E-09

      iter #   3 total cpu time : 10141.6 secs   av.it.:  11.1
      thresh= 8.060E-06 alpha_mix =  0.700 |ddv_scf|^2 =  5.873E-11

      iter #   4 total cpu time : 10269.2 secs   av.it.:  11.3
      thresh= 7.664E-07 alpha_mix =  0.700 |ddv_scf|^2 =  3.996E-13

      iter #   5 total cpu time : 10348.6 secs   av.it.:  11.2
      thresh= 6.322E-08 alpha_mix =  0.700 |ddv_scf|^2 =  9.486E-15

      iter #   6 total cpu time : 10431.6 secs   av.it.:  11.6
      thresh= 9.740E-09 alpha_mix =  0.700 |ddv_scf|^2 =  4.010E-17

     End of self-consistent calculation

     Convergence has been achieved 

     Number of q in the star =    6
     List of q in the star:
          1   0.000000000   0.333333333   0.000000000
          2   0.333333333   0.000000000   0.000000000
          3   0.000000000   0.000000000   0.333333333
          4   0.000000000  -0.333333333   0.000000000
          5  -0.333333333   0.000000000   0.000000000
          6   0.000000000   0.000000000  -0.333333333

     Diagonalizing the dynamical matrix

     q = (    0.000000000   0.333333333   0.000000000 ) 

 **************************************************************************
     freq (    1) =       2.948381 [THz] =      98.347406 [cm-1]
     freq (    2) =       2.948381 [THz] =      98.347406 [cm-1]
     freq (    3) =       4.953278 [THz] =     165.223580 [cm-1]
     freq (    4) =      14.670262 [THz] =     489.347271 [cm-1]
     freq (    5) =      14.670262 [THz] =     489.347271 [cm-1]
     freq (    6) =      15.143109 [THz] =     505.119755 [cm-1]
 **************************************************************************

     Mode symmetry, C_4v (4mm)  point group:

     freq (   1-   2) =         98.3  [cm-1]   --> E    G_5 D_5       
     freq (   3-   3) =        165.2  [cm-1]   --> A_1  G_1 D_1       
     freq (   4-   5) =        489.3  [cm-1]   --> E    G_5 D_5       
     freq (   6-   6) =        505.1  [cm-1]   --> B_2  G_4 D_2'      

     Calculation of q =   -0.1666667   0.5000000  -0.1666667

     Parallelization info
     --------------------
     sticks:   dense  smooth     PW     G-vecs:    dense   smooth      PW
     Min         143     143     44                 2981     2981     545
     Max         144     144     45                 2984     2984     550
     Sum        1003    1003    313                20875    20875    3839

     Using Slab Decomposition


     Title: 
     default                                                                    


     bravais-lattice index     =            2
     lattice parameter (alat)  =      10.1899  a.u.
     unit-cell volume          =     264.5151 (a.u.)^3
     number of atoms/cell      =            2
     number of atomic types    =            1
     number of electrons       =         8.00
     number of Kohn-Sham states=            4
     kinetic-energy cutoff     =      70.0000  Ry
     charge density cutoff     =     280.0000  Ry
     Exchange-correlation= PW
                           (   1   4   0   0   0   0   0)

     celldm(1)=  10.189905  celldm(2)=   0.000000  celldm(3)=   0.000000
     celldm(4)=   0.000000  celldm(5)=   0.000000  celldm(6)=   0.000000

     crystal axes: (cart. coord. in units of alat)
               a(1) = (  -0.500000   0.000000   0.500000 )  
               a(2) = (   0.000000   0.500000   0.500000 )  
               a(3) = (  -0.500000   0.500000   0.000000 )  

     reciprocal axes: (cart. coord. in units 2 pi/alat)
               b(1) = ( -1.000000 -1.000000  1.000000 )  
               b(2) = (  1.000000  1.000000  1.000000 )  
               b(3) = ( -1.000000  1.000000 -1.000000 )  


     PseudoPot. # 1 for Si read from file:
     ./pseudos/Si.nc.UPF
     MD5 check sum: 9e2d726316af3d4752eea8ab0afbb951
     Pseudo is Norm-conserving + core correction, Zval =  4.0
     Generated using ONCVPSP code by D. R. Hamann
     Using radial grid of 1510 points,  6 beta functions with: 
                l(1) =   0
                l(2) =   0
                l(3) =   1
                l(4) =   1
                l(5) =   2
                l(6) =   2

     atomic species   valence    mass     pseudopotential
        Si             4.00    28.08550     Si( 1.00)

     48 Sym. Ops., with inversion, found



   Cartesian axes

     site n.     atom                  positions (alat units)
         1           Si  tau(   1) = (   0.0000000   0.0000000   0.0000000  )
         2           Si  tau(   2) = (  -0.2500000   0.2500000   0.2500000  )

     number of k points=   936

     Number of k-points >= 100: set verbosity='high' to print them.

     Dense  grid:    20875 G-vectors     FFT dimensions: (  40,  40,  40)

     Estimated max dynamical RAM per process >       2.84 MB

     Estimated total dynamical RAM >      79.52 MB

     The potential is recalculated from file :
     /fastscratch/tsievers/QE_TMP_DIR/_ph0/si_ph_bench_nk_ompi_4_n_procs_28_1.save/charge-density

     Starting wfcs are    8 atomic wfcs

     Band Structure Calculation
[...]
      thresh= 1.946E-07 alpha_mix =  0.700 |ddv_scf|^2 =  1.770E-14

      iter #   7 total cpu time : 34122.0 secs   av.it.:  10.5
      thresh= 1.330E-08 alpha_mix =  0.700 |ddv_scf|^2 =  1.032E-15

      iter #   8 total cpu time : 34151.2 secs   av.it.:  10.7
      thresh= 3.213E-09 alpha_mix =  0.700 |ddv_scf|^2 =  7.277E-17

     End of self-consistent calculation

     Convergence has been achieved 

     Number of q in the star =   24
     List of q in the star:
          1   0.500000000  -0.166666667   0.833333333
          2   0.833333333   0.166666667   0.500000000
          3   0.500000000   0.166666667   0.833333333
          4  -0.833333333  -0.166666667   0.500000000
          5  -0.833333333  -0.166666667  -0.500000000
          6  -0.500000000  -0.166666667  -0.833333333
          7   0.833333333  -0.166666667   0.500000000
          8  -0.500000000  -0.166666667   0.833333333
          9  -0.833333333   0.166666667   0.500000000
         10   0.833333333   0.166666667  -0.500000000
         11   0.833333333  -0.166666667  -0.500000000
         12   0.500000000   0.166666667  -0.833333333
         13  -0.500000000   0.166666667   0.833333333
         14  -0.500000000   0.166666667  -0.833333333
         15  -0.833333333   0.166666667  -0.500000000
         16   0.833333333  -0.500000000   0.166666667
         17   0.833333333   0.500000000  -0.166666667
         18  -0.833333333  -0.500000000  -0.166666667
         19  -0.833333333   0.500000000   0.166666667
         20   0.166666667  -0.500000000   0.833333333
         21  -0.166666667   0.500000000   0.833333333
         22   0.166666667   0.500000000  -0.833333333
         23  -0.166666667  -0.500000000  -0.833333333
         24  -0.500000000   0.833333333   0.166666667

     Diagonalizing the dynamical matrix

     q = (    0.500000000  -0.166666667   0.833333333 ) 

 **************************************************************************
     freq (    1) =       5.051962 [THz] =     168.515323 [cm-1]
     freq (    2) =       6.066638 [THz] =     202.361267 [cm-1]
     freq (    3) =       9.812832 [THz] =     327.320836 [cm-1]
     freq (    4) =      11.453221 [THz] =     382.038315 [cm-1]
     freq (    5) =      14.041859 [THz] =     468.385984 [cm-1]
     freq (    6) =      14.270917 [THz] =     476.026557 [cm-1]
 **************************************************************************

     Calculation of q =   -0.3333333  -1.0000000   0.0000000

     Parallelization info
     --------------------
     sticks:   dense  smooth     PW     G-vecs:    dense   smooth      PW
     Min         143     143     49                 2981     2981     610
     Max         144     144     50                 2984     2984     612
     Sum        1003    1003    349                20875    20875    4279

     Using Slab Decomposition


     Title: 
     default                                                                    


     bravais-lattice index     =            2
     lattice parameter (alat)  =      10.1899  a.u.
     unit-cell volume          =     264.5151 (a.u.)^3
     number of atoms/cell      =            2
     number of atomic types    =            1
     number of electrons       =         8.00
     number of Kohn-Sham states=            4
     kinetic-energy cutoff     =      70.0000  Ry
     charge density cutoff     =     280.0000  Ry
     Exchange-correlation= PW
                           (   1   4   0   0   0   0   0)

     celldm(1)=  10.189905  celldm(2)=   0.000000  celldm(3)=   0.000000
     celldm(4)=   0.000000  celldm(5)=   0.000000  celldm(6)=   0.000000

     crystal axes: (cart. coord. in units of alat)
               a(1) = (  -0.500000   0.000000   0.500000 )  
               a(2) = (   0.000000   0.500000   0.500000 )  
               a(3) = (  -0.500000   0.500000   0.000000 )  

     reciprocal axes: (cart. coord. in units 2 pi/alat)
               b(1) = ( -1.000000 -1.000000  1.000000 )  
               b(2) = (  1.000000  1.000000  1.000000 )  
               b(3) = ( -1.000000  1.000000 -1.000000 )  


     PseudoPot. # 1 for Si read from file:
     ./pseudos/Si.nc.UPF
     MD5 check sum: 9e2d726316af3d4752eea8ab0afbb951
     Pseudo is Norm-conserving + core correction, Zval =  4.0
     Generated using ONCVPSP code by D. R. Hamann
     Using radial grid of 1510 points,  6 beta functions with: 
                l(1) =   0
                l(2) =   0
                l(3) =   1
                l(4) =   1
                l(5) =   2
                l(6) =   2

     atomic species   valence    mass     pseudopotential
        Si             4.00    28.08550     Si( 1.00)

     48 Sym. Ops., with inversion, found



   Cartesian axes

     site n.     atom                  positions (alat units)
         1           Si  tau(   1) = (   0.0000000   0.0000000   0.0000000  )
         2           Si  tau(   2) = (  -0.2500000   0.2500000   0.2500000  )

     number of k points=   432

     Number of k-points >= 100: set verbosity='high' to print them.

     Dense  grid:    20875 G-vectors     FFT dimensions: (  40,  40,  40)

     Estimated max dynamical RAM per process >       2.86 MB

     Estimated total dynamical RAM >      80.22 MB

     The potential is recalculated from file :
     /fastscratch/tsievers/QE_TMP_DIR/_ph0/si_ph_bench_nk_ompi_4_n_procs_28_1.save/charge-density

     Starting wfcs are    8 atomic wfcs

     Band Structure Calculation
     Davidson diagonalization with overlap

     ethr =  1.25E-10,  avg # of iterations = 12.8

     total cpu time spent up to now is     5596.3 secs

     End of band structure calculation

     Number of k-points >= 100: set verbosity='high' to print the bands.

     highest occupied level (ev):     6.1106

     Writing config to output data dir /fastscratch/tsievers/QE_TMP_DIR/_ph0/si_ph_bench_nk_ompi_4_n_procs_28_1.save/

     default                                                                    

     bravais-lattice index     =            2
     lattice parameter (alat)  =      10.1899  a.u.
     unit-cell volume          =     264.5151 (a.u.)^3
     number of atoms/cell      =            2
     number of atomic types    =            1
     kinetic-energy cut-off    =      70.0000  Ry
     charge density cut-off    =     280.0000  Ry
     convergence threshold     =      1.0E-15
     beta                      =       0.7000
     number of iterations used =            4
     Exchange-correlation= PW
                           (   1   4   0   0   0   0   0)


     celldm(1)=   10.18990  celldm(2)=    0.00000  celldm(3)=    0.00000
     celldm(4)=    0.00000  celldm(5)=    0.00000  celldm(6)=    0.00000

     crystal axes: (cart. coord. in units of alat)
               a(1) = ( -0.5000  0.0000  0.5000 )  
               a(2) = (  0.0000  0.5000  0.5000 )  
               a(3) = ( -0.5000  0.5000  0.0000 )  

     reciprocal axes: (cart. coord. in units 2 pi/alat)
               b(1) = ( -1.0000 -1.0000  1.0000 )  
               b(2) = (  1.0000  1.0000  1.0000 )  
               b(3) = ( -1.0000  1.0000 -1.0000 )  


     Atoms inside the unit cell: 

     Cartesian axes

     site n.  atom      mass           positions (alat units)
        1     Si  28.0855   tau(    1) = (    0.00000    0.00000    0.00000  )
        2     Si  28.0855   tau(    2) = (   -0.25000    0.25000    0.25000  )

     Computing dynamical matrix for 
                    q = (  -0.3333333  -1.0000000   0.0000000 )

      4 Sym.Ops. (no q -> -q+G )


     G cutoff =  736.4420  (   2984 G-vectors)     FFT grid: ( 40, 40, 40)
     number of k points=   432

     PseudoPot. # 1 for Si read from file:
     ./pseudos/Si.nc.UPF
     MD5 check sum: 9e2d726316af3d4752eea8ab0afbb951
     Pseudo is Norm-conserving + core correction, Zval =  4.0
     Generated using ONCVPSP code by D. R. Hamann
     Using radial grid of 1510 points,  6 beta functions with: 
                l(1) =   0
                l(2) =   0
                l(3) =   1
                l(4) =   1
                l(5) =   2
                l(6) =   2


     Atomic displacements:
     There are    3 irreducible representations

     Representation     1      2 modes -  To be done

     Representation     2      2 modes -  To be done

     Representation     3      2 modes -  To be done



     Alpha used in Ewald sum =   2.8000
     PHONON       :      2h54m CPU      9h31m WALL



     Representation #   1 modes #   1   2

     Self-consistent Calculation

      iter #   1 total cpu time : 34371.3 secs   av.it.:   6.2
      thresh= 1.000E-02 alpha_mix =  0.700 |ddv_scf|^2 =  4.573E-07

      iter #   2 total cpu time : 34409.7 secs   av.it.:  11.4
      thresh= 6.762E-05 alpha_mix =  0.700 |ddv_scf|^2 =  5.099E-07

      iter #   3 total cpu time : 34448.7 secs   av.it.:  10.8
      thresh= 7.141E-05 alpha_mix =  0.700 |ddv_scf|^2 =  4.154E-09

      iter #   4 total cpu time : 34494.0 secs   av.it.:  11.0
      thresh= 6.445E-06 alpha_mix =  0.700 |ddv_scf|^2 =  8.430E-11

      iter #   5 total cpu time : 34520.4 secs   av.it.:  11.1
      thresh= 9.181E-07 alpha_mix =  0.700 |ddv_scf|^2 =  9.753E-13

      iter #   6 total cpu time : 34549.7 secs   av.it.:  11.3
      thresh= 9.876E-08 alpha_mix =  0.700 |ddv_scf|^2 =  1.953E-14

      iter #   7 total cpu time : 34580.5 secs   av.it.:  11.3
      thresh= 1.397E-08 alpha_mix =  0.700 |ddv_scf|^2 =  1.018E-15

      iter #   8 total cpu time : 34621.1 secs   av.it.:  11.3
      thresh= 3.191E-09 alpha_mix =  0.700 |ddv_scf|^2 =  2.865E-17

     End of self-consistent calculation

     Convergence has been achieved 


     Representation #   2 modes #   3   4

     Self-consistent Calculation

      iter #   1 total cpu time : 34659.2 secs   av.it.:   6.4
      thresh= 1.000E-02 alpha_mix =  0.700 |ddv_scf|^2 =  8.292E-07

      iter #   2 total cpu time : 34688.8 secs   av.it.:  11.4
      thresh= 9.106E-05 alpha_mix =  0.700 |ddv_scf|^2 =  9.297E-07

      iter #   3 total cpu time : 34719.8 secs   av.it.:  10.8
      thresh= 9.642E-05 alpha_mix =  0.700 |ddv_scf|^2 =  8.037E-09

      iter #   4 total cpu time : 34753.4 secs   av.it.:  11.0
      thresh= 8.965E-06 alpha_mix =  0.700 |ddv_scf|^2 =  8.384E-11

      iter #   5 total cpu time : 34783.8 secs   av.it.:  11.2
      thresh= 9.156E-07 alpha_mix =  0.700 |ddv_scf|^2 =  1.910E-12

      iter #   6 total cpu time : 34818.6 secs   av.it.:  11.3
      thresh= 1.382E-07 alpha_mix =  0.700 |ddv_scf|^2 =  1.518E-14

      iter #   7 total cpu time : 34847.4 secs   av.it.:  11.2
      thresh= 1.232E-08 alpha_mix =  0.700 |ddv_scf|^2 =  9.612E-16

     End of self-consistent calculation

     Convergence has been achieved 


     Representation #   3 modes #   5   6

     Self-consistent Calculation

      iter #   1 total cpu time : 34865.9 secs   av.it.:   6.6
      thresh= 1.000E-02 alpha_mix =  0.700 |ddv_scf|^2 =  1.098E-06

      iter #   2 total cpu time : 34900.0 secs   av.it.:  11.4
      thresh= 1.048E-04 alpha_mix =  0.700 |ddv_scf|^2 =  1.205E-06

      iter #   3 total cpu time : 34935.1 secs   av.it.:  10.8
      thresh= 1.098E-04 alpha_mix =  0.700 |ddv_scf|^2 =  9.732E-09

      iter #   4 total cpu time : 34966.4 secs   av.it.:  10.9
      thresh= 9.865E-06 alpha_mix =  0.700 |ddv_scf|^2 =  6.603E-11

      iter #   5 total cpu time : 35001.3 secs   av.it.:  11.2
      thresh= 8.126E-07 alpha_mix =  0.700 |ddv_scf|^2 =  6.245E-13

      iter #   6 total cpu time : 35034.8 secs   av.it.:  11.3
      thresh= 7.903E-08 alpha_mix =  0.700 |ddv_scf|^2 =  1.114E-14

      iter #   7 total cpu time : 35067.6 secs   av.it.:  11.2
      thresh= 1.055E-08 alpha_mix =  0.700 |ddv_scf|^2 =  6.639E-16

     End of self-consistent calculation

     Convergence has been achieved 

     Number of q in the star =   12
     List of q in the star:
          1  -0.333333333  -1.000000000   0.000000000
          2   0.000000000  -1.000000000  -0.333333333
          3   0.000000000  -1.000000000   0.333333333
          4   0.333333333  -1.000000000   0.000000000
          5  -1.000000000   0.000000000  -0.333333333
          6   1.000000000   0.000000000   0.333333333
          7   0.000000000   0.333333333   1.000000000
          8   0.000000000  -0.333333333  -1.000000000
          9  -1.000000000  -0.333333333   0.000000000
         10   1.000000000   0.333333333   0.000000000
         11  -0.333333333   0.000000000   1.000000000
         12   0.333333333   0.000000000   1.000000000

     Diagonalizing the dynamical matrix

     q = (   -0.333333333  -1.000000000   0.000000000 ) 

 **************************************************************************
     freq (    1) =       5.494455 [THz] =     183.275292 [cm-1]
     freq (    2) =       5.494455 [THz] =     183.275292 [cm-1]
     freq (    3) =      10.966339 [THz] =     365.797694 [cm-1]
     freq (    4) =      10.966339 [THz] =     365.797694 [cm-1]
     freq (    5) =      14.002312 [THz] =     467.066841 [cm-1]
     freq (    6) =      14.002312 [THz] =     467.066841 [cm-1]
 **************************************************************************

     init_run     :      4.11s CPU     13.62s WALL (      15 calls)
     electrons    :   1652.38s CPU   5576.51s WALL (      15 calls)

     Called by init_run:
     wfcinit      :      0.00s CPU      0.16s WALL (      15 calls)
     potinit      :      1.78s CPU      6.21s WALL (      15 calls)
     hinit0       :      0.89s CPU      2.53s WALL (      15 calls)

     Called by electrons:
     c_bands      :   1652.02s CPU   5575.26s WALL (      15 calls)
     v_of_rho     :      0.51s CPU      1.68s WALL (      16 calls)

     Called by c_bands:
     init_us_2    :      7.54s CPU     19.58s WALL (   64075 calls)
     init_us_2:cp :      7.42s CPU     19.36s WALL (   64075 calls)
     cegterg      :   1232.26s CPU   4138.08s WALL (    2102 calls)

     Called by *egterg:
     cdiaghg      :    335.48s CPU   1132.64s WALL (   30200 calls)
     h_psi        :   4276.53s CPU  13529.94s WALL (  651345 calls)
     g_psi        :      0.22s CPU      0.49s WALL (   28098 calls)

     Called by h_psi:
     h_psi:calbec :   1018.78s CPU   3266.81s WALL (  651345 calls)
     vloc_psi     :   3223.94s CPU  10173.27s WALL (  651345 calls)
     add_vuspsi   :     29.50s CPU     79.33s WALL (  651345 calls)

     General routines
     calbec       :   1854.26s CPU   6040.86s WALL ( 1306381 calls)
     fft          :     15.95s CPU     54.02s WALL (    3773 calls)
     ffts         :     18.42s CPU     57.31s WALL (    6846 calls)
     fftw         :   3811.31s CPU  12063.30s WALL ( 5445294 calls)
     davcio       :      3.76s CPU    118.45s WALL (  275321 calls)

     Parallel routines

     PHONON       :      2h58m CPU      9h44m WALL

     INITIALIZATION: 
     phq_setup    :      3.64s CPU     13.08s WALL (      16 calls)
     phq_init     :     30.01s CPU     91.11s WALL (      16 calls)

     phq_init     :     30.01s CPU     91.11s WALL (      16 calls)
     set_drhoc    :      4.02s CPU      7.56s WALL (      48 calls)
     init_vloc    :      0.10s CPU      0.19s WALL (      16 calls)
     init_us_1    :      0.28s CPU      0.89s WALL (      16 calls)
     init_us_2    :      7.54s CPU     19.58s WALL (   64075 calls)

     DYNAMICAL MATRIX:
     dynmat0      :     18.04s CPU     56.48s WALL (      16 calls)
     phqscf       :   8894.79s CPU  28954.44s WALL (      16 calls)
     dynmatrix    :      1.29s CPU      4.45s WALL (      16 calls)

     phqscf       :   8894.79s CPU  28954.44s WALL (      16 calls)
     solve_linter :   8832.19s CPU  28742.11s WALL (      76 calls)
     drhodv       :     53.19s CPU    176.19s WALL (      76 calls)

     dynmat0      :     18.04s CPU     56.48s WALL (      16 calls)
     dynmat_us    :     13.66s CPU     45.71s WALL (      16 calls)
     d2ionq       :      0.19s CPU      0.55s WALL (      16 calls)
     dynmatcc     :      3.16s CPU      6.73s WALL (      16 calls)

     dynmat_us    :     13.66s CPU     45.71s WALL (      16 calls)

     phqscf       :   8894.79s CPU  28954.44s WALL (      16 calls)
     solve_linter :   8832.19s CPU  28742.11s WALL (      76 calls)

     solve_linter :   8832.19s CPU  28742.11s WALL (      76 calls)
     dvqpsi_us    :     95.56s CPU    305.55s WALL (    6390 calls)
     sth_kernel   :   8658.74s CPU  28144.97s WALL (     605 calls)
     apply_dpot_b :    294.52s CPU    927.06s WALL (   45753 calls)
     ortho        :     94.31s CPU    306.74s WALL (   52143 calls)
     cgsolve      :   7421.82s CPU  24048.74s WALL (   52143 calls)
     incdrhoscf   :    270.57s CPU    852.41s WALL (   52122 calls)
     dv_of_drho   :      8.58s CPU     28.48s WALL (     734 calls)
     mix_pot      :     15.28s CPU     84.42s WALL (     605 calls)
     psymdvscf    :     20.09s CPU     53.77s WALL (     600 calls)

     dvqpsi_us    :     95.56s CPU    305.55s WALL (    6390 calls)
     dvqpsi_us_on :      1.73s CPU      3.96s WALL (    6390 calls)

     cgsolve      :   7421.82s CPU  24048.74s WALL (   52143 calls)
     ch_psi       :   5497.55s CPU  17547.82s WALL (  619043 calls)

     ch_psi       :   5497.55s CPU  17547.82s WALL (  619043 calls)
     h_psi        :   4276.53s CPU  13529.94s WALL (  651345 calls)
     last         :   1605.88s CPU   5305.93s WALL (  619043 calls)

     h_psi        :   4276.53s CPU  13529.94s WALL (  651345 calls)
     add_vuspsi   :     29.50s CPU     79.33s WALL (  651345 calls)

     incdrhoscf   :    270.57s CPU    852.41s WALL (   52122 calls)


      General routines
     calbec       :   1854.26s CPU   6040.86s WALL ( 1306381 calls)
     fft          :     15.95s CPU     54.02s WALL (    3773 calls)
     ffts         :     18.42s CPU     57.31s WALL (    6846 calls)
     fftw         :   3811.31s CPU  12063.30s WALL ( 5445294 calls)
     davcio       :      3.76s CPU    118.45s WALL (  275321 calls)
     write_rec    :     43.97s CPU    185.15s WALL (     681 calls)


     PHONON       :      2h58m CPU      9h44m WALL


   This run was terminated on:  20:49:48  30Apr2022            

=------------------------------------------------------------------------------=
   JOB DONE.
=------------------------------------------------------------------------------=
Note: The following floating-point exceptions are signalling: IEEE_UNDERFLOW_FLAG IEEE_DENORMAL
Note: The following floating-point exceptions are signalling: IEEE_UNDERFLOW_FLAG IEEE_DENORMAL
Note: The following floating-point exceptions are signalling: IEEE_UNDERFLOW_FLAG IEEE_DENORMAL
Note: The following floating-point exceptions are signalling: IEEE_UNDERFLOW_FLAG IEEE_DENORMAL
Note: The following floating-point exceptions are signalling: IEEE_UNDERFLOW_FLAG IEEE_DENORMAL
Note: The following floating-point exceptions are signalling: IEEE_INVALID_FLAG IEEE_UNDERFLOW_FLAG IEEE_DENORMAL
Note: The following floating-point exceptions are signalling: IEEE_UNDERFLOW_FLAG IEEE_DENORMAL
Note: The following floating-point exceptions are signalling: IEEE_UNDERFLOW_FLAG IEEE_DENORMAL
Note: The following floating-point exceptions are signalling: IEEE_UNDERFLOW_FLAG IEEE_DENORMAL
Note: The following floating-point exceptions are signalling: IEEE_INVALID_FLAG IEEE_UNDERFLOW_FLAG IEEE_DENORMAL
Note: The following floating-point exceptions are signalling: IEEE_UNDERFLOW_FLAG IEEE_DENORMAL
Note: The following floating-point exceptions are signalling: IEEE_INVALID_FLAG IEEE_UNDERFLOW_FLAG IEEE_DENORMAL
Note: The following floating-point exceptions are signalling: IEEE_UNDERFLOW_FLAG IEEE_DENORMAL
Note: The following floating-point exceptions are signalling: IEEE_INVALID_FLAG IEEE_UNDERFLOW_FLAG IEEE_DENORMAL
Note: The following floating-point exceptions are signalling: IEEE_UNDERFLOW_FLAG IEEE_DENORMAL
Note: The following floating-point exceptions are signalling: IEEE_UNDERFLOW_FLAG IEEE_DENORMAL
real 35074.02
user 280790.39
sys 192953.09
