Module for intel-oneAPI 2021.4 loaded.
 
:: initializing oneAPI environment ...
   2636526: BASH_VERSION = 4.4.20(1)-release
:: advisor -- latest
:: ccl -- latest
:: clck -- latest
:: compiler -- latest
:: dal -- latest
:: debugger -- latest
:: dev-utilities -- latest
:: dnnl -- latest
:: dpcpp-ct -- latest
:: dpl -- latest
:: inspector -- latest
:: intelpython -- latest
:: ipp -- latest
:: ippcp -- latest
:: ipp -- latest
:: itac -- latest
:: LPOT -- latest
:: mkl -- latest
:: modelzoo -- latest
:: mpi -- latest
:: pytorch -- latest
:: tbb -- latest
:: tensorflow -- latest
:: vpl -- latest
:: vtune -- latest
:: oneAPI environment initialized ::
 

     Program PWSCF v.7.0 starts on 28Apr2022 at  4:46:46 

     This program is part of the open-source Quantum ESPRESSO suite
     for quantum simulation of materials; please cite
         "P. Giannozzi et al., J. Phys.:Condens. Matter 21 395502 (2009);
         "P. Giannozzi et al., J. Phys.:Condens. Matter 29 465901 (2017);
         "P. Giannozzi et al., J. Chem. Phys. 152 154105 (2020);
          URL http://www.quantum-espresso.org", 
     in publications or presentations arising from this work. More details at
     http://www.quantum-espresso.org/quote

     Parallel version (MPI), running on    28 processors

     MPI processes distributed on     2 nodes
     K-points division:     npool     =       2
     R & G space division:  proc/nbgrp/npool/nimage =      14
     58213 MiB available memory on the printing compute node when the environment starts
 
     Reading input from in_files/si_ph_bench_nk_2_n_procs_28_2.scf

     Current dimensions of program PWSCF are:
     Max number of different atomic species (ntypx) = 10
     Max number of k-points (npk) =  40000
     Max angular momentum in pseudopotentials (lmaxx) =  4

     Subspace diagonalization in iterative solution of the eigenvalue problem:
     one sub-group per band group will be used
     scalapack distributed-memory algorithm (size of sub-group:  3*  3 procs)

 
     Parallelization info
     --------------------
     sticks:   dense  smooth     PW     G-vecs:    dense   smooth      PW
     Min          71      71     21                 1489     1489     247
     Max          72      72     22                 1492     1492     250
     Sum        1003    1003    301                20875    20875    3479
 
     Using Slab Decomposition
 


     bravais-lattice index     =            2
     lattice parameter (alat)  =      10.1899  a.u.
     unit-cell volume          =     264.5151 (a.u.)^3
     number of atoms/cell      =            2
     number of atomic types    =            1
     number of electrons       =         8.00
     number of Kohn-Sham states=            4
     kinetic-energy cutoff     =      70.0000  Ry
     charge density cutoff     =     280.0000  Ry
     scf convergence threshold =      1.0E-10
     mixing beta               =       0.7000
     number of iterations used =            8  plain     mixing
     Exchange-correlation= SLA  PW   NOGX NOGC
                           (   1   4   0   0   0   0   0)

     celldm(1)=  10.189905  celldm(2)=   0.000000  celldm(3)=   0.000000
     celldm(4)=   0.000000  celldm(5)=   0.000000  celldm(6)=   0.000000

     crystal axes: (cart. coord. in units of alat)
               a(1) = (  -0.500000   0.000000   0.500000 )  
               a(2) = (   0.000000   0.500000   0.500000 )  
               a(3) = (  -0.500000   0.500000   0.000000 )  

     reciprocal axes: (cart. coord. in units 2 pi/alat)
               b(1) = ( -1.000000 -1.000000  1.000000 )  
               b(2) = (  1.000000  1.000000  1.000000 )  
               b(3) = ( -1.000000  1.000000 -1.000000 )  


     PseudoPot. # 1 for Si read from file:
     ./pseudos/Si.nc.UPF
     MD5 check sum: 9e2d726316af3d4752eea8ab0afbb951
     Pseudo is Norm-conserving + core correction, Zval =  4.0
     Generated using ONCVPSP code by D. R. Hamann
     Using radial grid of 1510 points,  6 beta functions with: 
                l(1) =   0
                l(2) =   0
                l(3) =   1
                l(4) =   1
                l(5) =   2
                l(6) =   2

     atomic species   valence    mass     pseudopotential
        Si             4.00    28.08550     Si( 1.00)

     48 Sym. Ops., with inversion, found (24 have fractional translation)



   Cartesian axes

     site n.     atom                  positions (alat units)
         1           Si  tau(   1) = (   0.0000000   0.0000000   0.0000000  )
         2           Si  tau(   2) = (  -0.2500000   0.2500000   0.2500000  )

     number of k points=    28
                       cart. coord. in units 2pi/alat
        k(    1) = (  -0.0833333   0.0833333   0.0833333), wk =   0.0185185
        k(    2) = (  -0.2500000   0.2500000  -0.0833333), wk =   0.0555556
        k(    3) = (  -0.4166667   0.4166667  -0.2500000), wk =   0.0555556
        k(    4) = (   0.4166667  -0.4166667   0.5833333), wk =   0.0555556
        k(    5) = (   0.2500000  -0.2500000   0.4166667), wk =   0.0555556
        k(    6) = (   0.0833333  -0.0833333   0.2500000), wk =   0.0555556
        k(    7) = (  -0.0833333   0.4166667   0.0833333), wk =   0.0555556
        k(    8) = (  -0.2500000   0.5833333  -0.0833333), wk =   0.1111111
        k(    9) = (   0.5833333  -0.2500000   0.7500000), wk =   0.1111111
        k(   10) = (   0.4166667  -0.0833333   0.5833333), wk =   0.1111111
        k(   11) = (   0.2500000   0.0833333   0.4166667), wk =   0.1111111
        k(   12) = (  -0.0833333   0.7500000   0.0833333), wk =   0.0555556
        k(   13) = (   0.7500000  -0.0833333   0.9166667), wk =   0.1111111
        k(   14) = (   0.5833333   0.0833333   0.7500000), wk =   0.1111111
        k(   15) = (   0.4166667   0.2500000   0.5833333), wk =   0.1111111
        k(   16) = (  -0.0833333  -0.9166667   0.0833333), wk =   0.0555556
        k(   17) = (  -0.2500000  -0.7500000  -0.0833333), wk =   0.1111111
        k(   18) = (  -0.0833333  -0.5833333   0.0833333), wk =   0.0555556
        k(   19) = (  -0.2500000   0.2500000   0.2500000), wk =   0.0185185
        k(   20) = (  -0.4166667   0.4166667   0.0833333), wk =   0.0555556
        k(   21) = (   0.4166667  -0.4166667   0.9166667), wk =   0.0555556
        k(   22) = (   0.2500000  -0.2500000   0.7500000), wk =   0.0555556
        k(   23) = (  -0.2500000   0.5833333   0.2500000), wk =   0.0555556
        k(   24) = (   0.5833333  -0.2500000   1.0833333), wk =   0.1111111
        k(   25) = (   0.4166667  -0.0833333   0.9166667), wk =   0.1111111
        k(   26) = (  -0.2500000  -1.0833333   0.2500000), wk =   0.0555556
        k(   27) = (  -0.4166667   0.4166667   0.4166667), wk =   0.0185185
        k(   28) = (   0.4166667  -0.4166667   1.2500000), wk =   0.0555556

     Dense  grid:    20875 G-vectors     FFT dimensions: (  40,  40,  40)

     Estimated max dynamical RAM per process >       2.61 MB

     Estimated total dynamical RAM >      68.08 MB

     Initial potential from superposition of free atoms

     starting charge       7.9989, renormalised to       8.0000
     Starting wfcs are    8 randomized atomic wfcs

     total cpu time spent up to now is        0.2 secs

     Self-consistent Calculation

     iteration #  1     ecut=    70.00 Ry     beta= 0.70
     Davidson diagonalization with overlap
     ethr =  1.00E-02,  avg # of iterations =  2.0

     Threshold (ethr) on eigenvalues was too large:
     Diagonalizing with lowered threshold

     Davidson diagonalization with overlap
     ethr =  6.13E-04,  avg # of iterations =  2.0

     total cpu time spent up to now is        0.4 secs

     total energy              =     -17.04764065 Ry
     estimated scf accuracy    <       0.05801456 Ry

     iteration #  2     ecut=    70.00 Ry     beta= 0.70
     Davidson diagonalization with overlap
     ethr =  7.25E-04,  avg # of iterations =  1.0

     total cpu time spent up to now is        0.4 secs

     total energy              =     -17.04996147 Ry
     estimated scf accuracy    <       0.00249197 Ry

     iteration #  3     ecut=    70.00 Ry     beta= 0.70
     Davidson diagonalization with overlap
     ethr =  3.11E-05,  avg # of iterations =  3.1

     total cpu time spent up to now is        0.6 secs

     total energy              =     -17.05082792 Ry
     estimated scf accuracy    <       0.00009785 Ry

     iteration #  4     ecut=    70.00 Ry     beta= 0.70
     Davidson diagonalization with overlap
     ethr =  1.22E-06,  avg # of iterations =  4.3

     total cpu time spent up to now is        0.7 secs

     total energy              =     -17.05089803 Ry
     estimated scf accuracy    <       0.00000388 Ry

     iteration #  5     ecut=    70.00 Ry     beta= 0.70
     Davidson diagonalization with overlap
     ethr =  4.85E-08,  avg # of iterations =  4.3

     total cpu time spent up to now is        0.9 secs

     total energy              =     -17.05090097 Ry
     estimated scf accuracy    <       0.00000016 Ry

     iteration #  6     ecut=    70.00 Ry     beta= 0.70
     Davidson diagonalization with overlap
     ethr =  1.95E-09,  avg # of iterations =  3.8

     total cpu time spent up to now is        1.1 secs

     total energy              =     -17.05090106 Ry
     estimated scf accuracy    <       0.00000001 Ry

     iteration #  7     ecut=    70.00 Ry     beta= 0.70
     Davidson diagonalization with overlap
     ethr =  1.69E-10,  avg # of iterations =  3.0

     total cpu time spent up to now is        1.2 secs

     End of self-consistent calculation

          k =-0.0833 0.0833 0.0833 (  2667 PWs)   bands (ev):

    -5.7561   5.3866   6.1106   6.1106

          k =-0.2500 0.2500-0.0833 (  2621 PWs)   bands (ev):

    -5.2692   3.2787   4.8359   5.9020

          k =-0.4167 0.4167-0.2500 (  2618 PWs)   bands (ev):

    -4.1491   0.4558   4.3704   5.2525

          k = 0.4167-0.4167 0.5833 (  2604 PWs)   bands (ev):

    -3.4238  -0.7235   4.4440   4.8612

          k = 0.2500-0.2500 0.4167 (  2618 PWs)   bands (ev):

    -4.5725   1.3222   4.9163   4.9543

          k = 0.0833-0.0833 0.2500 (  2643 PWs)   bands (ev):

    -5.5104   4.3092   5.4447   5.6431

          k =-0.0833 0.4167 0.0833 (  2627 PWs)   bands (ev):

    -5.0231   3.1094   4.6844   4.6977

          k =-0.2500 0.5833-0.0833 (  2613 PWs)   bands (ev):

    -4.0918   1.2428   3.3199   4.3008

          k = 0.5833-0.2500 0.7500 (  2616 PWs)   bands (ev):

    -2.9383  -0.5645   2.7090   4.0652

          k = 0.4167-0.0833 0.5833 (  2617 PWs)   bands (ev):

    -3.6856   0.5301   2.6549   4.5685

          k = 0.2500 0.0833 0.4167 (  2624 PWs)   bands (ev):

    -4.7922   2.2460   4.0374   5.2604

          k =-0.0833 0.7500 0.0833 (  2617 PWs)   bands (ev):

    -3.3664   0.4197   3.2861   3.6484

          k = 0.7500-0.0833 0.9167 (  2608 PWs)   bands (ev):

    -2.1400  -0.9430   2.4039   3.2177

          k = 0.5833 0.0833 0.7500 (  2608 PWs)   bands (ev):

    -2.5099  -0.6178   1.9049   3.7798

          k = 0.4167 0.2500 0.5833 (  2622 PWs)   bands (ev):

    -3.5664  -0.1967   3.6417   4.6731

          k =-0.0833-0.9167 0.0833 (  2604 PWs)   bands (ev):

    -2.2385  -0.9535   3.0091   3.4291

          k =-0.2500-0.7500-0.0833 (  2615 PWs)   bands (ev):

    -3.1914   0.1893   2.7413   3.5675

          k =-0.0833-0.5833 0.0833 (  2620 PWs)   bands (ev):

    -4.3033   1.8032   3.8480   4.0788

          k =-0.2500 0.2500 0.2500 (  2632 PWs)   bands (ev):

    -5.0343   2.2731   5.4857   5.4857

          k =-0.4167 0.4167 0.0833 (  2620 PWs)   bands (ev):

    -4.3392   1.3430   3.2813   5.3165

          k = 0.4167-0.4167 0.9167 (  2613 PWs)   bands (ev):

    -3.1274  -0.1140   2.1362   4.5076

          k = 0.2500-0.2500 0.7500 (  2618 PWs)   bands (ev):

    -3.0761  -0.1941   2.6355   4.0115

          k =-0.2500 0.5833 0.2500 (  2613 PWs)   bands (ev):

    -3.9042   0.5133   3.7736   4.3933

          k = 0.5833-0.2500 1.0833 (  2619 PWs)   bands (ev):

    -2.8765  -0.2149   2.2381   3.5572

          k = 0.4167-0.0833 0.9167 (  2613 PWs)   bands (ev):

    -2.0245  -0.9506   2.0592   2.8637

          k =-0.2500-1.0833 0.2500 (  2605 PWs)   bands (ev):

    -2.2385  -0.8649   1.9289   3.8127

          k =-0.4167 0.4167 0.4167 (  2602 PWs)   bands (ev):

    -3.8074  -0.3119   5.0941   5.0941

          k = 0.4167-0.4167 1.2500 (  2605 PWs)   bands (ev):

    -3.1840  -0.6106   3.2018   4.6388

     highest occupied level (ev):     6.1106

!    total energy              =     -17.05090107 Ry
     estimated scf accuracy    <          6.8E-11 Ry

     The total energy is the sum of the following terms:
     one-electron contribution =       5.01080630 Ry
     hartree contribution      =       1.07710399 Ry
     xc contribution           =      -6.22231009 Ry
     ewald contribution        =     -16.91650128 Ry

     convergence has been achieved in   7 iterations

     Forces acting on atoms (cartesian axes, Ry/au):

     atom    1 type  1   force =    -0.00000000    0.00000000   -0.00000000
     atom    2 type  1   force =    -0.00000000   -0.00000000    0.00000000

     Total force =     0.000000     Total SCF correction =     0.000000

     Writing all to output data dir /fastscratch/tsievers/QE_TMP_DIR/si_ph_bench_nk_2_n_procs_28_2.save/
 
     init_run     :      0.05s CPU      0.11s WALL (       1 calls)
     electrons    :      1.02s CPU      1.23s WALL (       1 calls)
     forces       :      0.01s CPU      0.01s WALL (       1 calls)

     Called by init_run:
     wfcinit      :      0.03s CPU      0.04s WALL (       1 calls)
     potinit      :      0.00s CPU      0.00s WALL (       1 calls)
     hinit0       :      0.01s CPU      0.06s WALL (       1 calls)

     Called by electrons:
     c_bands      :      0.95s CPU      0.96s WALL (       8 calls)
     sum_band     :      0.05s CPU      0.05s WALL (       8 calls)
     v_of_rho     :      0.01s CPU      0.01s WALL (       8 calls)
     mix_rho      :      0.00s CPU      0.00s WALL (       8 calls)

     Called by c_bands:
     init_us_2    :      0.02s CPU      0.02s WALL (     252 calls)
     init_us_2:cp :      0.02s CPU      0.02s WALL (     252 calls)
     cegterg      :      0.63s CPU      0.63s WALL (     112 calls)

     Called by *egterg:
     cdiaghg      :      0.28s CPU      0.29s WALL (     444 calls)
     h_psi        :      0.24s CPU      0.25s WALL (     472 calls)
     g_psi        :      0.00s CPU      0.00s WALL (     346 calls)

     Called by h_psi:
     h_psi:calbec :      0.02s CPU      0.02s WALL (     472 calls)
     vloc_psi     :      0.21s CPU      0.21s WALL (     472 calls)
     add_vuspsi   :      0.01s CPU      0.01s WALL (     472 calls)

     General routines
     calbec       :      0.02s CPU      0.02s WALL (     528 calls)
     fft          :      0.00s CPU      0.05s WALL (      28 calls)
     ffts         :      0.00s CPU      0.00s WALL (       8 calls)
     fftw         :      0.22s CPU      0.22s WALL (    3570 calls)
 
     Parallel routines
 
     PWSCF        :      1.15s CPU      1.99s WALL

 
   This run was terminated on:   4:46:48  28Apr2022            

=------------------------------------------------------------------------------=
   JOB DONE.
=------------------------------------------------------------------------------=

     Program PHONON v.7.0 starts on 28Apr2022 at  4:46:52 

     This program is part of the open-source Quantum ESPRESSO suite
     for quantum simulation of materials; please cite
         "P. Giannozzi et al., J. Phys.:Condens. Matter 21 395502 (2009);
         "P. Giannozzi et al., J. Phys.:Condens. Matter 29 465901 (2017);
         "P. Giannozzi et al., J. Chem. Phys. 152 154105 (2020);
          URL http://www.quantum-espresso.org", 
     in publications or presentations arising from this work. More details at
     http://www.quantum-espresso.org/quote

     Parallel version (MPI), running on    28 processors

     MPI processes distributed on     2 nodes
     K-points division:     npool     =       2
     R & G space division:  proc/nbgrp/npool/nimage =      14
     58218 MiB available memory on the printing compute node when the environment starts
 
     Reading input from in_files/si_ph_bench_nk_2_n_procs_28_2.ph
      Title line not specified: using 'default'.

     Reading xml data from directory:

     /fastscratch/tsievers/QE_TMP_DIR/si_ph_bench_nk_2_n_procs_28_2.save/

     IMPORTANT: XC functional enforced from input :
     Exchange-correlation= PW
                           (   1   4   0   0   0   0   0)
     Any further DFT definition will be discarded
     Please, verify this is what you really want

 
     Parallelization info
     --------------------
     sticks:   dense  smooth     PW     G-vecs:    dense   smooth      PW
     Min          71      71     21                 1489     1489     247
     Max          72      72     22                 1492     1492     250
     Sum        1003    1003    301                20875    20875    3479
 
     Using Slab Decomposition
 
     Reading collected, re-writing distributed wavefunctions


     Dynamical matrices for ( 6, 6, 6)  uniform grid of q-points
     (  16 q-points):
       N         xq(1)         xq(2)         xq(3) 
       1   0.000000000   0.000000000   0.000000000
       2  -0.166666667   0.166666667  -0.166666667
       3  -0.333333333   0.333333333  -0.333333333
       4   0.500000000  -0.500000000   0.500000000
       5   0.000000000   0.333333333   0.000000000
       6  -0.166666667   0.500000000  -0.166666667
       7   0.666666667  -0.333333333   0.666666667
       8   0.500000000  -0.166666667   0.500000000
       9   0.333333333   0.000000000   0.333333333
      10   0.000000000   0.666666667   0.000000000
      11   0.833333333  -0.166666667   0.833333333
      12   0.666666667  -0.000000000   0.666666667
      13   0.000000000  -1.000000000   0.000000000
      14   0.666666667  -0.333333333   1.000000000
      15   0.500000000  -0.166666667   0.833333333
      16  -0.333333333  -1.000000000   0.000000000

     Calculation of q =    0.0000000   0.0000000   0.0000000

     default                                                                    

     bravais-lattice index     =            2
     lattice parameter (alat)  =      10.1899  a.u.
     unit-cell volume          =     264.5151 (a.u.)^3
     number of atoms/cell      =            2
     number of atomic types    =            1
     kinetic-energy cut-off    =      70.0000  Ry
     charge density cut-off    =     280.0000  Ry
     convergence threshold     =      1.0E-15
     beta                      =       0.7000
     number of iterations used =            4
     Exchange-correlation= PW
                           (   1   4   0   0   0   0   0)


     celldm(1)=   10.18990  celldm(2)=    0.00000  celldm(3)=    0.00000
     celldm(4)=    0.00000  celldm(5)=    0.00000  celldm(6)=    0.00000

     crystal axes: (cart. coord. in units of alat)
               a(1) = ( -0.5000  0.0000  0.5000 )  
               a(2) = (  0.0000  0.5000  0.5000 )  
               a(3) = ( -0.5000  0.5000  0.0000 )  

     reciprocal axes: (cart. coord. in units 2 pi/alat)
               b(1) = ( -1.0000 -1.0000  1.0000 )  
               b(2) = (  1.0000  1.0000  1.0000 )  
               b(3) = ( -1.0000  1.0000 -1.0000 )  


     Atoms inside the unit cell: 

     Cartesian axes

     site n.  atom      mass           positions (alat units)
        1     Si  28.0855   tau(    1) = (    0.00000    0.00000    0.00000  )
        2     Si  28.0855   tau(    2) = (   -0.25000    0.25000    0.25000  )

     Computing dynamical matrix for 
                    q = (   0.0000000   0.0000000   0.0000000 )
 
     49 Sym.Ops. (with q -> -q+G )


     G cutoff =  736.4420  (   1492 G-vectors)     FFT grid: ( 40, 40, 40)
     number of k points=    28

     PseudoPot. # 1 for Si read from file:
     ./pseudos/Si.nc.UPF
     MD5 check sum: 9e2d726316af3d4752eea8ab0afbb951
     Pseudo is Norm-conserving + core correction, Zval =  4.0
     Generated using ONCVPSP code by D. R. Hamann
     Using radial grid of 1510 points,  6 beta functions with: 
                l(1) =   0
                l(2) =   0
                l(3) =   1
                l(4) =   1
                l(5) =   2
                l(6) =   2

     Mode symmetry, O_h (m-3m)  point group:


     Electric field:
     Dielectric constant
     Born effective charges in two ways 


     Atomic displacements:
     There are    2 irreducible representations

     Representation     1      3 modes -  To be done

     Representation     2      3 modes -  To be done



     Alpha used in Ewald sum =   2.8000
     PHONON       :      0.73s CPU      2.35s WALL


     Electric Fields Calculation

      iter #   1 total cpu time :     3.7 secs   av.it.:   6.5
      thresh= 1.000E-02 alpha_mix =  0.700 |ddv_scf|^2 =  1.044E-07

      iter #   2 total cpu time :     4.7 secs   av.it.:  11.7
      thresh= 3.230E-05 alpha_mix =  0.700 |ddv_scf|^2 =  4.473E-09

      iter #   3 total cpu time :     6.1 secs   av.it.:  11.6
      thresh= 6.688E-06 alpha_mix =  0.700 |ddv_scf|^2 =  5.041E-11

      iter #   4 total cpu time :     7.3 secs   av.it.:  11.9
      thresh= 7.100E-07 alpha_mix =  0.700 |ddv_scf|^2 =  2.990E-13

      iter #   5 total cpu time :     8.0 secs   av.it.:  10.9
      thresh= 5.468E-08 alpha_mix =  0.700 |ddv_scf|^2 =  1.097E-16

     End of electric fields calculation

          Dielectric constant in cartesian axis 

          (      13.312106366      -0.000000000       0.000000000 )
          (      -0.000000000      13.312106366       0.000000000 )
          (       0.000000000       0.000000000      13.312106366 )

          Effective charges (d Force / dE) in cartesian axis without acoustic sum rule applied (asr)

           atom      1   Si Mean Z*:       -0.00677
      Ex  (       -0.00677        0.00000        0.00000 )
      Ey  (        0.00000       -0.00677       -0.00000 )
      Ez  (        0.00000       -0.00000       -0.00677 )
           atom      2   Si Mean Z*:       -0.00677
      Ex  (       -0.00677        0.00000        0.00000 )
      Ey  (        0.00000       -0.00677        0.00000 )
      Ez  (        0.00000       -0.00000       -0.00677 )

          Effective charges Sum: Mean:       -0.01354
             -0.01354        0.00000        0.00000
              0.00000       -0.01354       -0.00000
              0.00000       -0.00000       -0.01354

          Effective charges (d Force / dE) in cartesian axis with asr applied: 
           atom      1   Si Mean Z*:        0.00000
      E*x (        0.00000        0.00000        0.00000 )
      E*y (       -0.00000        0.00000       -0.00000 )
      E*z (        0.00000       -0.00000        0.00000 )
           atom      2   Si Mean Z*:       -0.00000
      E*x (       -0.00000       -0.00000       -0.00000 )
      E*y (        0.00000       -0.00000        0.00000 )
      E*z (       -0.00000        0.00000       -0.00000 )


     Representation #   1 modes #   1   2   3

     Self-consistent Calculation

      iter #   1 total cpu time :     9.1 secs   av.it.:   5.8
      thresh= 1.000E-02 alpha_mix =  0.700 |ddv_scf|^2 =  1.504E-08

      iter #   2 total cpu time :    10.1 secs   av.it.:  11.7
      thresh= 1.227E-05 alpha_mix =  0.700 |ddv_scf|^2 =  3.381E-10

      iter #   3 total cpu time :    11.0 secs   av.it.:  11.7
      thresh= 1.839E-06 alpha_mix =  0.700 |ddv_scf|^2 =  1.262E-11

      iter #   4 total cpu time :    11.9 secs   av.it.:  11.5
      thresh= 3.552E-07 alpha_mix =  0.700 |ddv_scf|^2 =  4.086E-14

      iter #   5 total cpu time :    12.7 secs   av.it.:  11.8
      thresh= 2.021E-08 alpha_mix =  0.700 |ddv_scf|^2 =  1.897E-16

     End of self-consistent calculation

     Convergence has been achieved 


     Representation #   2 modes #   4   5   6

     Self-consistent Calculation

      iter #   1 total cpu time :    13.8 secs   av.it.:   6.0
      thresh= 1.000E-02 alpha_mix =  0.700 |ddv_scf|^2 =  1.086E-08

      iter #   2 total cpu time :    14.9 secs   av.it.:  11.9
      thresh= 1.042E-05 alpha_mix =  0.700 |ddv_scf|^2 =  3.906E-10

      iter #   3 total cpu time :    15.8 secs   av.it.:  11.8
      thresh= 1.976E-06 alpha_mix =  0.700 |ddv_scf|^2 =  1.778E-11

      iter #   4 total cpu time :    17.1 secs   av.it.:  11.8
      thresh= 4.216E-07 alpha_mix =  0.700 |ddv_scf|^2 =  3.182E-14

      iter #   5 total cpu time :    18.2 secs   av.it.:  11.9
      thresh= 1.784E-08 alpha_mix =  0.700 |ddv_scf|^2 =  8.454E-17

     End of self-consistent calculation

     Convergence has been achieved 
 
     Number of q in the star =    1
     List of q in the star:
          1   0.000000000   0.000000000   0.000000000

          Dielectric constant in cartesian axis 

          (      13.312106366      -0.000000000       0.000000000 )
          (      -0.000000000      13.312106366       0.000000000 )
          (       0.000000000       0.000000000      13.312106366 )

          Effective charges (d Force / dE) in cartesian axis without acoustic sum rule applied (asr)

           atom      1   Si Mean Z*:       -0.00677
      Ex  (       -0.00677        0.00000        0.00000 )
      Ey  (        0.00000       -0.00677       -0.00000 )
      Ez  (        0.00000       -0.00000       -0.00677 )
           atom      2   Si Mean Z*:       -0.00677
      Ex  (       -0.00677        0.00000        0.00000 )
      Ey  (        0.00000       -0.00677        0.00000 )
      Ez  (        0.00000       -0.00000       -0.00677 )

          Effective charges Sum: Mean:       -0.01354
             -0.01354        0.00000        0.00000
              0.00000       -0.01354       -0.00000
              0.00000       -0.00000       -0.01354

          Effective charges (d Force / dE) in cartesian axis with asr applied: 
           atom      1   Si Mean Z*:        0.00000
      E*x (        0.00000        0.00000        0.00000 )
      E*y (       -0.00000        0.00000       -0.00000 )
      E*z (        0.00000       -0.00000        0.00000 )
           atom      2   Si Mean Z*:       -0.00000
      E*x (       -0.00000       -0.00000       -0.00000 )
      E*y (        0.00000       -0.00000        0.00000 )
      E*z (       -0.00000        0.00000       -0.00000 )

          Effective charges (d P / du) in cartesian axis 

           atom      1   Si 
      Px  (       -0.00684       -0.00000       -0.00000 )
      Py  (       -0.00000       -0.00684        0.00000 )
      Pz  (       -0.00000        0.00000       -0.00684 )
           atom      2   Si 
      Px  (       -0.00684       -0.00000       -0.00000 )
      Py  (       -0.00000       -0.00684       -0.00000 )
      Pz  (       -0.00000       -0.00000       -0.00684 )

     Diagonalizing the dynamical matrix

     q = (    0.000000000   0.000000000   0.000000000 ) 

 **************************************************************************
     freq (    1) =      -0.112454 [THz] =      -3.751071 [cm-1]
     freq (    2) =      -0.112454 [THz] =      -3.751071 [cm-1]
     freq (    3) =      -0.112454 [THz] =      -3.751071 [cm-1]
     freq (    4) =      15.412113 [THz] =     514.092745 [cm-1]
     freq (    5) =      15.412113 [THz] =     514.092745 [cm-1]
     freq (    6) =      15.412113 [THz] =     514.092745 [cm-1]
 **************************************************************************

     Mode symmetry, O_h (m-3m)  point group:

     freq (   1-   3) =         -3.8  [cm-1]   --> T_1u G_15  G_4- I  
     freq (   4-   6) =        514.1  [cm-1]   --> T_2g G_25' G_5+ R  

     Calculation of q =   -0.1666667   0.1666667  -0.1666667

     Subspace diagonalization in iterative solution of the eigenvalue problem:
     one sub-group per band group will be used
     scalapack distributed-memory algorithm (size of sub-group:  3*  3 procs)

 
     Parallelization info
     --------------------
     sticks:   dense  smooth     PW     G-vecs:    dense   smooth      PW
     Min          71      71     22                 1489     1489     262
     Max          72      72     23                 1492     1492     265
     Sum        1003    1003    313                20875    20875    3695
 
     Using Slab Decomposition
 

     Title: 
     default                                                                    


     bravais-lattice index     =            2
     lattice parameter (alat)  =      10.1899  a.u.
     unit-cell volume          =     264.5151 (a.u.)^3
     number of atoms/cell      =            2
     number of atomic types    =            1
     number of electrons       =         8.00
     number of Kohn-Sham states=            4
     kinetic-energy cutoff     =      70.0000  Ry
     charge density cutoff     =     280.0000  Ry
     Exchange-correlation= PW
                           (   1   4   0   0   0   0   0)

     celldm(1)=  10.189905  celldm(2)=   0.000000  celldm(3)=   0.000000
     celldm(4)=   0.000000  celldm(5)=   0.000000  celldm(6)=   0.000000

     crystal axes: (cart. coord. in units of alat)
               a(1) = (  -0.500000   0.000000   0.500000 )  
               a(2) = (   0.000000   0.500000   0.500000 )  
               a(3) = (  -0.500000   0.500000   0.000000 )  

     reciprocal axes: (cart. coord. in units 2 pi/alat)
               b(1) = ( -1.000000 -1.000000  1.000000 )  
               b(2) = (  1.000000  1.000000  1.000000 )  
               b(3) = ( -1.000000  1.000000 -1.000000 )  


     PseudoPot. # 1 for Si read from file:
     ./pseudos/Si.nc.UPF
     MD5 check sum: 9e2d726316af3d4752eea8ab0afbb951
     Pseudo is Norm-conserving + core correction, Zval =  4.0
     Generated using ONCVPSP code by D. R. Hamann
     Using radial grid of 1510 points,  6 beta functions with: 
                l(1) =   0
                l(2) =   0
                l(3) =   1
                l(4) =   1
                l(5) =   2
                l(6) =   2

     atomic species   valence    mass     pseudopotential
        Si             4.00    28.08550     Si( 1.00)

     48 Sym. Ops., with inversion, found



   Cartesian axes

     site n.     atom                  positions (alat units)
         1           Si  tau(   1) = (   0.0000000   0.0000000   0.0000000  )
         2           Si  tau(   2) = (  -0.2500000   0.2500000   0.2500000  )

     number of k points=   364

     Number of k-points >= 100: set verbosity='high' to print them.

     Dense  grid:    20875 G-vectors     FFT dimensions: (  40,  40,  40)

     Estimated max dynamical RAM per process >       2.09 MB

     Estimated total dynamical RAM >      58.62 MB

     The potential is recalculated from file :
     /fastscratch/tsievers/QE_TMP_DIR/_ph0/si_ph_bench_nk_2_n_procs_28_2.save/charge-density

     Starting wfcs are    8 atomic wfcs

     Band Structure Calculation
     Davidson diagonalization with overlap

     ethr =  1.25E-10,  avg # of iterations = 12.9

     total cpu time spent up to now is        6.7 secs

     End of band structure calculation

     Number of k-points >= 100: set verbosity='high' to print the bands.

     highest occupied level (ev):     6.1106

     Writing config to output data dir /fastscratch/tsievers/QE_TMP_DIR/_ph0/si_ph_bench_nk_2_n_procs_28_2.save/

     default                                                                    

     bravais-lattice index     =            2
     lattice parameter (alat)  =      10.1899  a.u.
     unit-cell volume          =     264.5151 (a.u.)^3
     number of atoms/cell      =            2
     number of atomic types    =            1
     kinetic-energy cut-off    =      70.0000  Ry
     charge density cut-off    =     280.0000  Ry
     convergence threshold     =      1.0E-15
     beta                      =       0.7000
     number of iterations used =            4
     Exchange-correlation= PW
                           (   1   4   0   0   0   0   0)


     celldm(1)=   10.18990  celldm(2)=    0.00000  celldm(3)=    0.00000
     celldm(4)=    0.00000  celldm(5)=    0.00000  celldm(6)=    0.00000

     crystal axes: (cart. coord. in units of alat)
               a(1) = ( -0.5000  0.0000  0.5000 )  
               a(2) = (  0.0000  0.5000  0.5000 )  
               a(3) = ( -0.5000  0.5000  0.0000 )  

     reciprocal axes: (cart. coord. in units 2 pi/alat)
               b(1) = ( -1.0000 -1.0000  1.0000 )  
               b(2) = (  1.0000  1.0000  1.0000 )  
               b(3) = ( -1.0000  1.0000 -1.0000 )  


     Atoms inside the unit cell: 

     Cartesian axes

     site n.  atom      mass           positions (alat units)
        1     Si  28.0855   tau(    1) = (    0.00000    0.00000    0.00000  )
        2     Si  28.0855   tau(    2) = (   -0.25000    0.25000    0.25000  )

     Computing dynamical matrix for 
                    q = (  -0.1666667   0.1666667  -0.1666667 )
 
      6 Sym.Ops. (no q -> -q+G )


     G cutoff =  736.4420  (   1492 G-vectors)     FFT grid: ( 40, 40, 40)
     number of k points=   364

     PseudoPot. # 1 for Si read from file:
     ./pseudos/Si.nc.UPF
     MD5 check sum: 9e2d726316af3d4752eea8ab0afbb951
     Pseudo is Norm-conserving + core correction, Zval =  4.0
     Generated using ONCVPSP code by D. R. Hamann
     Using radial grid of 1510 points,  6 beta functions with: 
                l(1) =   0
                l(2) =   0
                l(3) =   1
                l(4) =   1
                l(5) =   2
                l(6) =   2

     Mode symmetry, C_3v (3m)   point group:


     Atomic displacements:
     There are    4 irreducible representations

     Representation     1      1 modes -  To be done

     Representation     2      1 modes -  To be done

     Representation     3      2 modes -  To be done

     Representation     4      2 modes -  To be done



     Alpha used in Ewald sum =   2.8000
     PHONON       :     22.79s CPU     30.92s WALL



     Representation #   1 mode #   1

     Self-consistent Calculation

      iter #   1 total cpu time :    31.8 secs   av.it.:   6.6
      thresh= 1.000E-02 alpha_mix =  0.700 |ddv_scf|^2 =  1.408E-03

      iter #   2 total cpu time :    32.8 secs   av.it.:   8.9
      thresh= 3.752E-03 alpha_mix =  0.700 |ddv_scf|^2 =  4.612E-02

      iter #   3 total cpu time :    34.0 secs   av.it.:   7.6
      thresh= 1.000E-02 alpha_mix =  0.700 |ddv_scf|^2 =  3.754E-07

      iter #   4 total cpu time :    35.0 secs   av.it.:   9.1
      thresh= 6.127E-05 alpha_mix =  0.700 |ddv_scf|^2 =  1.230E-08

      iter #   5 total cpu time :    36.4 secs   av.it.:   9.5
      thresh= 1.109E-05 alpha_mix =  0.700 |ddv_scf|^2 =  7.769E-10

      iter #   6 total cpu time :    37.3 secs   av.it.:   8.4
      thresh= 2.787E-06 alpha_mix =  0.700 |ddv_scf|^2 =  1.472E-09

      iter #   7 total cpu time :    38.5 secs   av.it.:   8.0
      thresh= 3.837E-06 alpha_mix =  0.700 |ddv_scf|^2 =  8.497E-11

      iter #   8 total cpu time :    39.6 secs   av.it.:   8.4
      thresh= 9.218E-07 alpha_mix =  0.700 |ddv_scf|^2 =  6.817E-13

      iter #   9 total cpu time :    41.0 secs   av.it.:   8.2
      thresh= 8.257E-08 alpha_mix =  0.700 |ddv_scf|^2 =  1.515E-14

      iter #  10 total cpu time :    42.1 secs   av.it.:   8.6
      thresh= 1.231E-08 alpha_mix =  0.700 |ddv_scf|^2 =  1.445E-15

      iter #  11 total cpu time :    43.4 secs   av.it.:   9.0
      thresh= 3.801E-09 alpha_mix =  0.700 |ddv_scf|^2 =  2.044E-16

     End of self-consistent calculation

     Convergence has been achieved 


     Representation #   2 mode #   2

     Self-consistent Calculation

      iter #   1 total cpu time :    44.5 secs   av.it.:   6.6
      thresh= 1.000E-02 alpha_mix =  0.700 |ddv_scf|^2 =  1.408E-03

      iter #   2 total cpu time :    45.6 secs   av.it.:   8.9
      thresh= 3.752E-03 alpha_mix =  0.700 |ddv_scf|^2 =  4.612E-02

      iter #   3 total cpu time :    47.0 secs   av.it.:   7.6
      thresh= 1.000E-02 alpha_mix =  0.700 |ddv_scf|^2 =  3.754E-07

      iter #   4 total cpu time :    48.2 secs   av.it.:   9.1
      thresh= 6.127E-05 alpha_mix =  0.700 |ddv_scf|^2 =  1.230E-08

      iter #   5 total cpu time :    49.7 secs   av.it.:   9.5
      thresh= 1.109E-05 alpha_mix =  0.700 |ddv_scf|^2 =  7.769E-10

      iter #   6 total cpu time :    52.5 secs   av.it.:   8.4
      thresh= 2.787E-06 alpha_mix =  0.700 |ddv_scf|^2 =  1.472E-09

      iter #   7 total cpu time :    53.8 secs   av.it.:   8.0
      thresh= 3.837E-06 alpha_mix =  0.700 |ddv_scf|^2 =  8.497E-11

      iter #   8 total cpu time :    55.0 secs   av.it.:   8.4
      thresh= 9.218E-07 alpha_mix =  0.700 |ddv_scf|^2 =  6.817E-13

      iter #   9 total cpu time :    56.1 secs   av.it.:   8.2
      thresh= 8.256E-08 alpha_mix =  0.700 |ddv_scf|^2 =  1.515E-14

      iter #  10 total cpu time :    57.1 secs   av.it.:   8.6
      thresh= 1.231E-08 alpha_mix =  0.700 |ddv_scf|^2 =  1.444E-15

      iter #  11 total cpu time :    58.1 secs   av.it.:   9.0
      thresh= 3.801E-09 alpha_mix =  0.700 |ddv_scf|^2 =  2.044E-16

     End of self-consistent calculation

     Convergence has been achieved 


     Representation #   3 modes #   3   4

     Self-consistent Calculation

      iter #   1 total cpu time :    60.8 secs   av.it.:   6.1
      thresh= 1.000E-02 alpha_mix =  0.700 |ddv_scf|^2 =  3.672E-08

      iter #   2 total cpu time :    64.9 secs   av.it.:  11.4
      thresh= 1.916E-05 alpha_mix =  0.700 |ddv_scf|^2 =  1.634E-09

      iter #   3 total cpu time :    67.9 secs   av.it.:  11.3
      thresh= 4.042E-06 alpha_mix =  0.700 |ddv_scf|^2 =  4.267E-11

      iter #   4 total cpu time :    70.3 secs   av.it.:  11.4
      thresh= 6.532E-07 alpha_mix =  0.700 |ddv_scf|^2 =  4.922E-13

      iter #   5 total cpu time :    72.6 secs   av.it.:  11.4
      thresh= 7.016E-08 alpha_mix =  0.700 |ddv_scf|^2 =  1.045E-14

      iter #   6 total cpu time :    75.6 secs   av.it.:  11.6
      thresh= 1.022E-08 alpha_mix =  0.700 |ddv_scf|^2 =  4.743E-17

     End of self-consistent calculation

     Convergence has been achieved 


     Representation #   4 modes #   5   6

     Self-consistent Calculation

      iter #   1 total cpu time :    77.2 secs   av.it.:   6.0
      thresh= 1.000E-02 alpha_mix =  0.700 |ddv_scf|^2 =  3.672E-08

      iter #   2 total cpu time :    79.7 secs   av.it.:  11.4
      thresh= 1.916E-05 alpha_mix =  0.700 |ddv_scf|^2 =  1.635E-09

      iter #   3 total cpu time :    82.8 secs   av.it.:  11.3
      thresh= 4.043E-06 alpha_mix =  0.700 |ddv_scf|^2 =  4.267E-11

      iter #   4 total cpu time :    85.6 secs   av.it.:  11.4
      thresh= 6.532E-07 alpha_mix =  0.700 |ddv_scf|^2 =  4.924E-13

      iter #   5 total cpu time :    89.0 secs   av.it.:  11.3
      thresh= 7.017E-08 alpha_mix =  0.700 |ddv_scf|^2 =  1.046E-14

      iter #   6 total cpu time :    91.3 secs   av.it.:  11.6
      thresh= 1.023E-08 alpha_mix =  0.700 |ddv_scf|^2 =  4.740E-17

     End of self-consistent calculation

     Convergence has been achieved 
 
     Number of q in the star =    8
     List of q in the star:
          1  -0.166666667   0.166666667  -0.166666667
          2   0.166666667   0.166666667   0.166666667
          3  -0.166666667  -0.166666667  -0.166666667
          4   0.166666667  -0.166666667   0.166666667
          5   0.166666667  -0.166666667  -0.166666667
          6   0.166666667   0.166666667  -0.166666667
          7  -0.166666667  -0.166666667   0.166666667
          8  -0.166666667   0.166666667   0.166666667

     Diagonalizing the dynamical matrix

     q = (   -0.166666667   0.166666667  -0.166666667 ) 

 **************************************************************************
     freq (    1) =       2.202621 [THz] =      73.471515 [cm-1]
     freq (    2) =       2.202621 [THz] =      73.471515 [cm-1]
     freq (    3) =       4.748018 [THz] =     158.376820 [cm-1]
     freq (    4) =      15.023886 [THz] =     501.142884 [cm-1]
     freq (    5) =      15.065869 [THz] =     502.543298 [cm-1]
     freq (    6) =      15.065869 [THz] =     502.543298 [cm-1]
 **************************************************************************

     Mode symmetry, C_3v (3m)   point group:

     freq (   1-   2) =         73.5  [cm-1]   --> E    L_3           
     freq (   3-   3) =        158.4  [cm-1]   --> A_1  L_1           
     freq (   4-   4) =        501.1  [cm-1]   --> A_1  L_1           
     freq (   5-   6) =        502.5  [cm-1]   --> E    L_3           

     Calculation of q =   -0.3333333   0.3333333  -0.3333333
 
     Parallelization info
     --------------------
     sticks:   dense  smooth     PW     G-vecs:    dense   smooth      PW
     Min          71      71     22                 1489     1489     272
     Max          72      72     23                 1492     1492     277
     Sum        1003    1003    313                20875    20875    3839
 
     Using Slab Decomposition
 

     Title: 
     default                                                                    


     bravais-lattice index     =            2
     lattice parameter (alat)  =      10.1899  a.u.
     unit-cell volume          =     264.5151 (a.u.)^3
     number of atoms/cell      =            2
     number of atomic types    =            1
     number of electrons       =         8.00
     number of Kohn-Sham states=            4
     kinetic-energy cutoff     =      70.0000  Ry
     charge density cutoff     =     280.0000  Ry
     Exchange-correlation= PW
                           (   1   4   0   0   0   0   0)

     celldm(1)=  10.189905  celldm(2)=   0.000000  celldm(3)=   0.000000
     celldm(4)=   0.000000  celldm(5)=   0.000000  celldm(6)=   0.000000

     crystal axes: (cart. coord. in units of alat)
               a(1) = (  -0.500000   0.000000   0.500000 )  
               a(2) = (   0.000000   0.500000   0.500000 )  
               a(3) = (  -0.500000   0.500000   0.000000 )  

     reciprocal axes: (cart. coord. in units 2 pi/alat)
               b(1) = ( -1.000000 -1.000000  1.000000 )  
               b(2) = (  1.000000  1.000000  1.000000 )  
               b(3) = ( -1.000000  1.000000 -1.000000 )  


     PseudoPot. # 1 for Si read from file:
     ./pseudos/Si.nc.UPF
     MD5 check sum: 9e2d726316af3d4752eea8ab0afbb951
     Pseudo is Norm-conserving + core correction, Zval =  4.0
     Generated using ONCVPSP code by D. R. Hamann
     Using radial grid of 1510 points,  6 beta functions with: 
                l(1) =   0
                l(2) =   0
                l(3) =   1
                l(4) =   1
                l(5) =   2
                l(6) =   2

     atomic species   valence    mass     pseudopotential
        Si             4.00    28.08550     Si( 1.00)

     48 Sym. Ops., with inversion, found



   Cartesian axes

     site n.     atom                  positions (alat units)
         1           Si  tau(   1) = (   0.0000000   0.0000000   0.0000000  )
         2           Si  tau(   2) = (  -0.2500000   0.2500000   0.2500000  )

     number of k points=   364

     Number of k-points >= 100: set verbosity='high' to print them.

     Dense  grid:    20875 G-vectors     FFT dimensions: (  40,  40,  40)

     Estimated max dynamical RAM per process >       2.11 MB

     Estimated total dynamical RAM >      59.00 MB

     The potential is recalculated from file :
     /fastscratch/tsievers/QE_TMP_DIR/_ph0/si_ph_bench_nk_2_n_procs_28_2.save/charge-density

     Starting wfcs are    8 atomic wfcs

     Band Structure Calculation
     Davidson diagonalization with overlap

     ethr =  1.25E-10,  avg # of iterations = 12.9

     total cpu time spent up to now is       13.9 secs

     End of band structure calculation

     Number of k-points >= 100: set verbosity='high' to print the bands.

     highest occupied level (ev):     6.1106

     Writing config to output data dir /fastscratch/tsievers/QE_TMP_DIR/_ph0/si_ph_bench_nk_2_n_procs_28_2.save/

     default                                                                    

     bravais-lattice index     =            2
     lattice parameter (alat)  =      10.1899  a.u.
     unit-cell volume          =     264.5151 (a.u.)^3
     number of atoms/cell      =            2
     number of atomic types    =            1
     kinetic-energy cut-off    =      70.0000  Ry
     charge density cut-off    =     280.0000  Ry
     convergence threshold     =      1.0E-15
     beta                      =       0.7000
     number of iterations used =            4
     Exchange-correlation= PW
                           (   1   4   0   0   0   0   0)


     celldm(1)=   10.18990  celldm(2)=    0.00000  celldm(3)=    0.00000
     celldm(4)=    0.00000  celldm(5)=    0.00000  celldm(6)=    0.00000

     crystal axes: (cart. coord. in units of alat)
               a(1) = ( -0.5000  0.0000  0.5000 )  
               a(2) = (  0.0000  0.5000  0.5000 )  
               a(3) = ( -0.5000  0.5000  0.0000 )  

     reciprocal axes: (cart. coord. in units 2 pi/alat)
               b(1) = ( -1.0000 -1.0000  1.0000 )  
               b(2) = (  1.0000  1.0000  1.0000 )  
               b(3) = ( -1.0000  1.0000 -1.0000 )  


     Atoms inside the unit cell: 

     Cartesian axes

     site n.  atom      mass           positions (alat units)
        1     Si  28.0855   tau(    1) = (    0.00000    0.00000    0.00000  )
        2     Si  28.0855   tau(    2) = (   -0.25000    0.25000    0.25000  )

     Computing dynamical matrix for 
                    q = (  -0.3333333   0.3333333  -0.3333333 )
 
      6 Sym.Ops. (no q -> -q+G )


     G cutoff =  736.4420  (   1492 G-vectors)     FFT grid: ( 40, 40, 40)
     number of k points=   364

     PseudoPot. # 1 for Si read from file:
     ./pseudos/Si.nc.UPF
     MD5 check sum: 9e2d726316af3d4752eea8ab0afbb951
     Pseudo is Norm-conserving + core correction, Zval =  4.0
     Generated using ONCVPSP code by D. R. Hamann
     Using radial grid of 1510 points,  6 beta functions with: 
                l(1) =   0
                l(2) =   0
                l(3) =   1
                l(4) =   1
                l(5) =   2
                l(6) =   2

     Mode symmetry, C_3v (3m)   point group:


     Atomic displacements:
     There are    4 irreducible representations

     Representation     1      1 modes -  To be done

     Representation     2      1 modes -  To be done

     Representation     3      2 modes -  To be done

     Representation     4      2 modes -  To be done



     Alpha used in Ewald sum =   2.8000
     PHONON       :   1m21.84s CPU   1m40.50s WALL



     Representation #   1 mode #   1

     Self-consistent Calculation

      iter #   1 total cpu time :   101.3 secs   av.it.:   6.5
      thresh= 1.000E-02 alpha_mix =  0.700 |ddv_scf|^2 =  8.913E-05

      iter #   2 total cpu time :   102.4 secs   av.it.:   9.7
      thresh= 9.441E-04 alpha_mix =  0.700 |ddv_scf|^2 =  7.113E-04

      iter #   3 total cpu time :   103.3 secs   av.it.:   8.3
      thresh= 2.667E-03 alpha_mix =  0.700 |ddv_scf|^2 =  1.309E-07

      iter #   4 total cpu time :   104.7 secs   av.it.:   9.9
      thresh= 3.619E-05 alpha_mix =  0.700 |ddv_scf|^2 =  2.660E-09

      iter #   5 total cpu time :   105.9 secs   av.it.:   9.9
      thresh= 5.158E-06 alpha_mix =  0.700 |ddv_scf|^2 =  2.822E-11

      iter #   6 total cpu time :   107.0 secs   av.it.:  10.5
      thresh= 5.312E-07 alpha_mix =  0.700 |ddv_scf|^2 =  2.921E-12

      iter #   7 total cpu time :   108.3 secs   av.it.:  10.3
      thresh= 1.709E-07 alpha_mix =  0.700 |ddv_scf|^2 =  2.285E-12

      iter #   8 total cpu time :   109.4 secs   av.it.:   9.4
      thresh= 1.512E-07 alpha_mix =  0.700 |ddv_scf|^2 =  2.234E-12

      iter #   9 total cpu time :   113.2 secs   av.it.:   9.0
      thresh= 1.495E-07 alpha_mix =  0.700 |ddv_scf|^2 =  2.954E-13

      iter #  10 total cpu time :   114.8 secs   av.it.:   9.0
      thresh= 5.435E-08 alpha_mix =  0.700 |ddv_scf|^2 =  1.857E-15

      iter #  11 total cpu time :   115.8 secs   av.it.:   9.7
      thresh= 4.309E-09 alpha_mix =  0.700 |ddv_scf|^2 =  1.724E-16

     End of self-consistent calculation

     Convergence has been achieved 


     Representation #   2 mode #   2

     Self-consistent Calculation

      iter #   1 total cpu time :   117.1 secs   av.it.:   6.5
      thresh= 1.000E-02 alpha_mix =  0.700 |ddv_scf|^2 =  8.913E-05

      iter #   2 total cpu time :   118.2 secs   av.it.:   9.7
      thresh= 9.441E-04 alpha_mix =  0.700 |ddv_scf|^2 =  7.113E-04

      iter #   3 total cpu time :   119.8 secs   av.it.:   8.3
      thresh= 2.667E-03 alpha_mix =  0.700 |ddv_scf|^2 =  1.309E-07

      iter #   4 total cpu time :   121.2 secs   av.it.:   9.9
      thresh= 3.619E-05 alpha_mix =  0.700 |ddv_scf|^2 =  2.660E-09

      iter #   5 total cpu time :   122.3 secs   av.it.:   9.9
      thresh= 5.158E-06 alpha_mix =  0.700 |ddv_scf|^2 =  2.822E-11

      iter #   6 total cpu time :   123.4 secs   av.it.:  10.5
      thresh= 5.312E-07 alpha_mix =  0.700 |ddv_scf|^2 =  2.920E-12

      iter #   7 total cpu time :   124.5 secs   av.it.:  10.3
      thresh= 1.709E-07 alpha_mix =  0.700 |ddv_scf|^2 =  2.279E-12

      iter #   8 total cpu time :   125.7 secs   av.it.:   9.4
      thresh= 1.510E-07 alpha_mix =  0.700 |ddv_scf|^2 =  2.233E-12

      iter #   9 total cpu time :   126.8 secs   av.it.:   9.0
      thresh= 1.494E-07 alpha_mix =  0.700 |ddv_scf|^2 =  2.951E-13

      iter #  10 total cpu time :   128.5 secs   av.it.:   9.0
      thresh= 5.432E-08 alpha_mix =  0.700 |ddv_scf|^2 =  1.852E-15

      iter #  11 total cpu time :   129.5 secs   av.it.:   9.7
      thresh= 4.304E-09 alpha_mix =  0.700 |ddv_scf|^2 =  1.720E-16

     End of self-consistent calculation

     Convergence has been achieved 


     Representation #   3 modes #   3   4

     Self-consistent Calculation

      iter #   1 total cpu time :   131.4 secs   av.it.:   6.1
      thresh= 1.000E-02 alpha_mix =  0.700 |ddv_scf|^2 =  5.001E-08

      iter #   2 total cpu time :   134.3 secs   av.it.:  11.4
      thresh= 2.236E-05 alpha_mix =  0.700 |ddv_scf|^2 =  3.465E-09

      iter #   3 total cpu time :   138.0 secs   av.it.:  11.2
      thresh= 5.886E-06 alpha_mix =  0.700 |ddv_scf|^2 =  5.016E-11

      iter #   4 total cpu time :   140.5 secs   av.it.:  11.4
      thresh= 7.082E-07 alpha_mix =  0.700 |ddv_scf|^2 =  5.031E-13

      iter #   5 total cpu time :   143.5 secs   av.it.:  11.4
      thresh= 7.093E-08 alpha_mix =  0.700 |ddv_scf|^2 =  9.794E-15

      iter #   6 total cpu time :   145.9 secs   av.it.:  11.6
      thresh= 9.896E-09 alpha_mix =  0.700 |ddv_scf|^2 =  6.670E-17

     End of self-consistent calculation

     Convergence has been achieved 


     Representation #   4 modes #   5   6

     Self-consistent Calculation

      iter #   1 total cpu time :   147.6 secs   av.it.:   6.1
      thresh= 1.000E-02 alpha_mix =  0.700 |ddv_scf|^2 =  5.002E-08

      iter #   2 total cpu time :   150.0 secs   av.it.:  11.4
      thresh= 2.236E-05 alpha_mix =  0.700 |ddv_scf|^2 =  3.467E-09

      iter #   3 total cpu time :   152.3 secs   av.it.:  11.2
      thresh= 5.889E-06 alpha_mix =  0.700 |ddv_scf|^2 =  5.014E-11

      iter #   4 total cpu time :   154.7 secs   av.it.:  11.3
      thresh= 7.081E-07 alpha_mix =  0.700 |ddv_scf|^2 =  5.032E-13

      iter #   5 total cpu time :   157.1 secs   av.it.:  11.4
      thresh= 7.093E-08 alpha_mix =  0.700 |ddv_scf|^2 =  9.786E-15

      iter #   6 total cpu time :   159.8 secs   av.it.:  11.5
      thresh= 9.892E-09 alpha_mix =  0.700 |ddv_scf|^2 =  6.667E-17

     End of self-consistent calculation

     Convergence has been achieved 
 
     Number of q in the star =    8
     List of q in the star:
          1  -0.333333333   0.333333333  -0.333333333
          2   0.333333333   0.333333333   0.333333333
          3  -0.333333333  -0.333333333  -0.333333333
          4   0.333333333  -0.333333333   0.333333333
          5   0.333333333  -0.333333333  -0.333333333
          6   0.333333333   0.333333333  -0.333333333
          7  -0.333333333  -0.333333333   0.333333333
          8  -0.333333333   0.333333333   0.333333333

     Diagonalizing the dynamical matrix

     q = (   -0.333333333   0.333333333  -0.333333333 ) 

 **************************************************************************
     freq (    1) =       3.044010 [THz] =     101.537256 [cm-1]
     freq (    2) =       3.044010 [THz] =     101.537256 [cm-1]
     freq (    3) =       8.747612 [THz] =     291.788938 [cm-1]
     freq (    4) =      13.856971 [THz] =     462.218801 [cm-1]
     freq (    5) =      14.763279 [THz] =     492.449977 [cm-1]
     freq (    6) =      14.763279 [THz] =     492.449977 [cm-1]
 **************************************************************************

     Mode symmetry, C_3v (3m)   point group:

     freq (   1-   2) =        101.5  [cm-1]   --> E    L_3           
     freq (   3-   3) =        291.8  [cm-1]   --> A_1  L_1           
     freq (   4-   4) =        462.2  [cm-1]   --> A_1  L_1           
     freq (   5-   6) =        492.4  [cm-1]   --> E    L_3           

     Calculation of q =    0.5000000  -0.5000000   0.5000000
 
     Parallelization info
     --------------------
     sticks:   dense  smooth     PW     G-vecs:    dense   smooth      PW
     Min          71      71     23                 1489     1489     286
     Max          72      72     25                 1492     1492     288
     Sum        1003    1003    337                20875    20875    4015
 
     Using Slab Decomposition
 

     Title: 
     default                                                                    


     bravais-lattice index     =            2
     lattice parameter (alat)  =      10.1899  a.u.
     unit-cell volume          =     264.5151 (a.u.)^3
     number of atoms/cell      =            2
     number of atomic types    =            1
     number of electrons       =         8.00
     number of Kohn-Sham states=            4
     kinetic-energy cutoff     =      70.0000  Ry
     charge density cutoff     =     280.0000  Ry
     Exchange-correlation= PW
                           (   1   4   0   0   0   0   0)

     celldm(1)=  10.189905  celldm(2)=   0.000000  celldm(3)=   0.000000
     celldm(4)=   0.000000  celldm(5)=   0.000000  celldm(6)=   0.000000

     crystal axes: (cart. coord. in units of alat)
               a(1) = (  -0.500000   0.000000   0.500000 )  
               a(2) = (   0.000000   0.500000   0.500000 )  
               a(3) = (  -0.500000   0.500000   0.000000 )  

     reciprocal axes: (cart. coord. in units 2 pi/alat)
               b(1) = ( -1.000000 -1.000000  1.000000 )  
               b(2) = (  1.000000  1.000000  1.000000 )  
               b(3) = ( -1.000000  1.000000 -1.000000 )  


     PseudoPot. # 1 for Si read from file:
     ./pseudos/Si.nc.UPF
     MD5 check sum: 9e2d726316af3d4752eea8ab0afbb951
     Pseudo is Norm-conserving + core correction, Zval =  4.0
     Generated using ONCVPSP code by D. R. Hamann
     Using radial grid of 1510 points,  6 beta functions with: 
                l(1) =   0
                l(2) =   0
                l(3) =   1
                l(4) =   1
                l(5) =   2
                l(6) =   2

     atomic species   valence    mass     pseudopotential
        Si             4.00    28.08550     Si( 1.00)

     48 Sym. Ops., with inversion, found



   Cartesian axes

     site n.     atom                  positions (alat units)
         1           Si  tau(   1) = (   0.0000000   0.0000000   0.0000000  )
         2           Si  tau(   2) = (  -0.2500000   0.2500000   0.2500000  )

     number of k points=   182

     Number of k-points >= 100: set verbosity='high' to print them.

     Dense  grid:    20875 G-vectors     FFT dimensions: (  40,  40,  40)

     Estimated max dynamical RAM per process >       2.12 MB

     Estimated total dynamical RAM >      59.41 MB

     The potential is recalculated from file :
     /fastscratch/tsievers/QE_TMP_DIR/_ph0/si_ph_bench_nk_2_n_procs_28_2.save/charge-density

     Starting wfcs are    8 atomic wfcs

     Band Structure Calculation
     Davidson diagonalization with overlap

     ethr =  1.25E-10,  avg # of iterations = 12.9

     total cpu time spent up to now is       17.8 secs

     End of band structure calculation

     Number of k-points >= 100: set verbosity='high' to print the bands.

     highest occupied level (ev):     6.1106

     Writing config to output data dir /fastscratch/tsievers/QE_TMP_DIR/_ph0/si_ph_bench_nk_2_n_procs_28_2.save/

     default                                                                    

     bravais-lattice index     =            2
     lattice parameter (alat)  =      10.1899  a.u.
     unit-cell volume          =     264.5151 (a.u.)^3
     number of atoms/cell      =            2
     number of atomic types    =            1
     kinetic-energy cut-off    =      70.0000  Ry
     charge density cut-off    =     280.0000  Ry
     convergence threshold     =      1.0E-15
     beta                      =       0.7000
     number of iterations used =            4
     Exchange-correlation= PW
                           (   1   4   0   0   0   0   0)


     celldm(1)=   10.18990  celldm(2)=    0.00000  celldm(3)=    0.00000
     celldm(4)=    0.00000  celldm(5)=    0.00000  celldm(6)=    0.00000

     crystal axes: (cart. coord. in units of alat)
               a(1) = ( -0.5000  0.0000  0.5000 )  
               a(2) = (  0.0000  0.5000  0.5000 )  
               a(3) = ( -0.5000  0.5000  0.0000 )  

     reciprocal axes: (cart. coord. in units 2 pi/alat)
               b(1) = ( -1.0000 -1.0000  1.0000 )  
               b(2) = (  1.0000  1.0000  1.0000 )  
               b(3) = ( -1.0000  1.0000 -1.0000 )  


     Atoms inside the unit cell: 

     Cartesian axes

     site n.  atom      mass           positions (alat units)
        1     Si  28.0855   tau(    1) = (    0.00000    0.00000    0.00000  )
        2     Si  28.0855   tau(    2) = (   -0.25000    0.25000    0.25000  )

     Computing dynamical matrix for 
                    q = (   0.5000000  -0.5000000   0.5000000 )
 
     13 Sym.Ops. (with q -> -q+G )


     G cutoff =  736.4420  (   1492 G-vectors)     FFT grid: ( 40, 40, 40)
     number of k points=   182

     PseudoPot. # 1 for Si read from file:
     ./pseudos/Si.nc.UPF
     MD5 check sum: 9e2d726316af3d4752eea8ab0afbb951
     Pseudo is Norm-conserving + core correction, Zval =  4.0
     Generated using ONCVPSP code by D. R. Hamann
     Using radial grid of 1510 points,  6 beta functions with: 
                l(1) =   0
                l(2) =   0
                l(3) =   1
                l(4) =   1
                l(5) =   2
                l(6) =   2


     Atomic displacements:
     There are    4 irreducible representations

     Representation     1      1 modes -  To be done

     Representation     2      1 modes -  To be done

     Representation     3      2 modes -  To be done

     Representation     4      2 modes -  To be done



     Alpha used in Ewald sum =   2.8000
     PHONON       :   2m16.92s CPU   2m45.26s WALL



     Representation #   1 mode #   1

     Self-consistent Calculation

      iter #   1 total cpu time :   165.6 secs   av.it.:   5.8
      thresh= 1.000E-02 alpha_mix =  0.700 |ddv_scf|^2 =  2.851E-06

      iter #   2 total cpu time :   166.3 secs   av.it.:   9.9
      thresh= 1.689E-04 alpha_mix =  0.700 |ddv_scf|^2 =  2.630E-06

      iter #   3 total cpu time :   166.8 secs   av.it.:   9.3
      thresh= 1.622E-04 alpha_mix =  0.700 |ddv_scf|^2 =  3.511E-10

      iter #   4 total cpu time :   167.4 secs   av.it.:  10.1
      thresh= 1.874E-06 alpha_mix =  0.700 |ddv_scf|^2 =  6.024E-12

      iter #   5 total cpu time :   168.0 secs   av.it.:   9.8
      thresh= 2.454E-07 alpha_mix =  0.700 |ddv_scf|^2 =  8.668E-14

      iter #   6 total cpu time :   169.1 secs   av.it.:   9.8
      thresh= 2.944E-08 alpha_mix =  0.700 |ddv_scf|^2 =  1.138E-15

      iter #   7 total cpu time :   169.7 secs   av.it.:   9.8
      thresh= 3.374E-09 alpha_mix =  0.700 |ddv_scf|^2 =  3.895E-18

     End of self-consistent calculation

     Convergence has been achieved 


     Representation #   2 mode #   2

     Self-consistent Calculation

      iter #   1 total cpu time :   171.3 secs   av.it.:   6.7
      thresh= 1.000E-02 alpha_mix =  0.700 |ddv_scf|^2 =  4.356E-05

      iter #   2 total cpu time :   171.9 secs   av.it.:  10.0
      thresh= 6.600E-04 alpha_mix =  0.700 |ddv_scf|^2 =  1.423E-04

      iter #   3 total cpu time :   172.5 secs   av.it.:   9.1
      thresh= 1.193E-03 alpha_mix =  0.700 |ddv_scf|^2 =  8.430E-09

      iter #   4 total cpu time :   174.1 secs   av.it.:   9.8
      thresh= 9.181E-06 alpha_mix =  0.700 |ddv_scf|^2 =  1.767E-10

      iter #   5 total cpu time :   175.3 secs   av.it.:  10.4
      thresh= 1.329E-06 alpha_mix =  0.700 |ddv_scf|^2 =  8.749E-12

      iter #   6 total cpu time :   176.4 secs   av.it.:  10.1
      thresh= 2.958E-07 alpha_mix =  0.700 |ddv_scf|^2 =  2.430E-13

      iter #   7 total cpu time :   177.7 secs   av.it.:   9.4
      thresh= 4.929E-08 alpha_mix =  0.700 |ddv_scf|^2 =  6.371E-17

     End of self-consistent calculation

     Convergence has been achieved 


     Representation #   3 modes #   3   4

     Self-consistent Calculation

      iter #   1 total cpu time :   178.6 secs   av.it.:   6.1
      thresh= 1.000E-02 alpha_mix =  0.700 |ddv_scf|^2 =  1.007E-07

      iter #   2 total cpu time :   179.9 secs   av.it.:  11.3
      thresh= 3.173E-05 alpha_mix =  0.700 |ddv_scf|^2 =  8.533E-09

      iter #   3 total cpu time :   181.8 secs   av.it.:  11.2
      thresh= 9.237E-06 alpha_mix =  0.700 |ddv_scf|^2 =  5.713E-11

      iter #   4 total cpu time :   183.3 secs   av.it.:  11.2
      thresh= 7.559E-07 alpha_mix =  0.700 |ddv_scf|^2 =  6.389E-14

      iter #   5 total cpu time :   184.6 secs   av.it.:  11.4
      thresh= 2.528E-08 alpha_mix =  0.700 |ddv_scf|^2 =  8.407E-16

     End of self-consistent calculation

     Convergence has been achieved 


     Representation #   4 modes #   5   6

     Self-consistent Calculation

      iter #   1 total cpu time :   185.5 secs   av.it.:   5.5
      thresh= 1.000E-02 alpha_mix =  0.700 |ddv_scf|^2 =  1.142E-08

      iter #   2 total cpu time :   186.8 secs   av.it.:  11.2
      thresh= 1.069E-05 alpha_mix =  0.700 |ddv_scf|^2 =  2.995E-10

      iter #   3 total cpu time :   188.0 secs   av.it.:  11.2
      thresh= 1.731E-06 alpha_mix =  0.700 |ddv_scf|^2 =  1.841E-11

      iter #   4 total cpu time :   189.6 secs   av.it.:  11.3
      thresh= 4.291E-07 alpha_mix =  0.700 |ddv_scf|^2 =  7.877E-14

      iter #   5 total cpu time :   191.5 secs   av.it.:  11.2
      thresh= 2.807E-08 alpha_mix =  0.700 |ddv_scf|^2 =  1.259E-15

      iter #   6 total cpu time :   192.7 secs   av.it.:  11.3
      thresh= 3.548E-09 alpha_mix =  0.700 |ddv_scf|^2 =  2.665E-18

     End of self-consistent calculation

     Convergence has been achieved 
 
     Number of q in the star =    4
     List of q in the star:
          1   0.500000000  -0.500000000   0.500000000
          2   0.500000000   0.500000000   0.500000000
          3  -0.500000000   0.500000000   0.500000000
          4   0.500000000   0.500000000  -0.500000000

     Diagonalizing the dynamical matrix

     q = (    0.500000000  -0.500000000   0.500000000 ) 

 **************************************************************************
     freq (    1) =       3.158235 [THz] =     105.347385 [cm-1]
     freq (    2) =       3.158235 [THz] =     105.347385 [cm-1]
     freq (    3) =      11.168954 [THz] =     372.556203 [cm-1]
     freq (    4) =      12.390675 [THz] =     413.308425 [cm-1]
     freq (    5) =      14.704242 [THz] =     490.480718 [cm-1]
     freq (    6) =      14.704242 [THz] =     490.480718 [cm-1]
 **************************************************************************

     Calculation of q =    0.0000000   0.3333333   0.0000000
 
     Parallelization info
     --------------------
     sticks:   dense  smooth     PW     G-vecs:    dense   smooth      PW
     Min          71      71     22                 1489     1489     264
     Max          72      72     23                 1492     1492     267
     Sum        1003    1003    313                20875    20875    3719
 
     Using Slab Decomposition
 

     Title: 
     default                                                                    


     bravais-lattice index     =            2
     lattice parameter (alat)  =      10.1899  a.u.
     unit-cell volume          =     264.5151 (a.u.)^3
     number of atoms/cell      =            2
     number of atomic types    =            1
     number of electrons       =         8.00
     number of Kohn-Sham states=            4
     kinetic-energy cutoff     =      70.0000  Ry
     charge density cutoff     =     280.0000  Ry
     Exchange-correlation= PW
                           (   1   4   0   0   0   0   0)

     celldm(1)=  10.189905  celldm(2)=   0.000000  celldm(3)=   0.000000
     celldm(4)=   0.000000  celldm(5)=   0.000000  celldm(6)=   0.000000

     crystal axes: (cart. coord. in units of alat)
               a(1) = (  -0.500000   0.000000   0.500000 )  
               a(2) = (   0.000000   0.500000   0.500000 )  
               a(3) = (  -0.500000   0.500000   0.000000 )  

     reciprocal axes: (cart. coord. in units 2 pi/alat)
               b(1) = ( -1.000000 -1.000000  1.000000 )  
               b(2) = (  1.000000  1.000000  1.000000 )  
               b(3) = ( -1.000000  1.000000 -1.000000 )  


     PseudoPot. # 1 for Si read from file:
     ./pseudos/Si.nc.UPF
     MD5 check sum: 9e2d726316af3d4752eea8ab0afbb951
     Pseudo is Norm-conserving + core correction, Zval =  4.0
     Generated using ONCVPSP code by D. R. Hamann
     Using radial grid of 1510 points,  6 beta functions with: 
                l(1) =   0
                l(2) =   0
                l(3) =   1
                l(4) =   1
                l(5) =   2
                l(6) =   2

     atomic species   valence    mass     pseudopotential
        Si             4.00    28.08550     Si( 1.00)

     48 Sym. Ops., with inversion, found



   Cartesian axes

     site n.     atom                  positions (alat units)
         1           Si  tau(   1) = (   0.0000000   0.0000000   0.0000000  )
         2           Si  tau(   2) = (  -0.2500000   0.2500000   0.2500000  )

     number of k points=   252

     Number of k-points >= 100: set verbosity='high' to print them.

     Dense  grid:    20875 G-vectors     FFT dimensions: (  40,  40,  40)

     Estimated max dynamical RAM per process >       2.10 MB

     Estimated total dynamical RAM >      58.67 MB

     The potential is recalculated from file :
     /fastscratch/tsievers/QE_TMP_DIR/_ph0/si_ph_bench_nk_2_n_procs_28_2.save/charge-density

     Starting wfcs are    8 atomic wfcs

     Band Structure Calculation
     Davidson diagonalization with overlap

     ethr =  1.25E-10,  avg # of iterations = 12.8

     total cpu time spent up to now is       23.0 secs

     End of band structure calculation

     Number of k-points >= 100: set verbosity='high' to print the bands.

     highest occupied level (ev):     6.1106

     Writing config to output data dir /fastscratch/tsievers/QE_TMP_DIR/_ph0/si_ph_bench_nk_2_n_procs_28_2.save/

     default                                                                    

     bravais-lattice index     =            2
     lattice parameter (alat)  =      10.1899  a.u.
     unit-cell volume          =     264.5151 (a.u.)^3
     number of atoms/cell      =            2
     number of atomic types    =            1
     kinetic-energy cut-off    =      70.0000  Ry
     charge density cut-off    =     280.0000  Ry
     convergence threshold     =      1.0E-15
     beta                      =       0.7000
     number of iterations used =            4
     Exchange-correlation= PW
                           (   1   4   0   0   0   0   0)


     celldm(1)=   10.18990  celldm(2)=    0.00000  celldm(3)=    0.00000
     celldm(4)=    0.00000  celldm(5)=    0.00000  celldm(6)=    0.00000

     crystal axes: (cart. coord. in units of alat)
               a(1) = ( -0.5000  0.0000  0.5000 )  
               a(2) = (  0.0000  0.5000  0.5000 )  
               a(3) = ( -0.5000  0.5000  0.0000 )  

     reciprocal axes: (cart. coord. in units 2 pi/alat)
               b(1) = ( -1.0000 -1.0000  1.0000 )  
               b(2) = (  1.0000  1.0000  1.0000 )  
               b(3) = ( -1.0000  1.0000 -1.0000 )  


     Atoms inside the unit cell: 

     Cartesian axes

     site n.  atom      mass           positions (alat units)
        1     Si  28.0855   tau(    1) = (    0.00000    0.00000    0.00000  )
        2     Si  28.0855   tau(    2) = (   -0.25000    0.25000    0.25000  )

     Computing dynamical matrix for 
                    q = (   0.0000000   0.3333333   0.0000000 )
 
      8 Sym.Ops. (no q -> -q+G )


     G cutoff =  736.4420  (   1492 G-vectors)     FFT grid: ( 40, 40, 40)
     number of k points=   252

     PseudoPot. # 1 for Si read from file:
     ./pseudos/Si.nc.UPF
     MD5 check sum: 9e2d726316af3d4752eea8ab0afbb951
     Pseudo is Norm-conserving + core correction, Zval =  4.0
     Generated using ONCVPSP code by D. R. Hamann
     Using radial grid of 1510 points,  6 beta functions with: 
                l(1) =   0
                l(2) =   0
                l(3) =   1
                l(4) =   1
                l(5) =   2
                l(6) =   2

     Mode symmetry, C_4v (4mm)  point group:


     Atomic displacements:
     There are    4 irreducible representations

     Representation     1      1 modes -  To be done

     Representation     2      1 modes -  To be done

     Representation     3      2 modes -  To be done

     Representation     4      2 modes -  To be done



     Alpha used in Ewald sum =   2.8000
     PHONON       :   2m44.67s CPU   3m19.17s WALL



     Representation #   1 mode #   1

     Self-consistent Calculation

      iter #   1 total cpu time :   199.9 secs   av.it.:   6.8
      thresh= 1.000E-02 alpha_mix =  0.700 |ddv_scf|^2 =  1.891E-03

      iter #   2 total cpu time :   200.7 secs   av.it.:   9.1
      thresh= 4.348E-03 alpha_mix =  0.700 |ddv_scf|^2 =  5.765E-02

      iter #   3 total cpu time :   202.0 secs   av.it.:   8.1
      thresh= 1.000E-02 alpha_mix =  0.700 |ddv_scf|^2 =  5.304E-08

      iter #   4 total cpu time :   202.7 secs   av.it.:   9.0
      thresh= 2.303E-05 alpha_mix =  0.700 |ddv_scf|^2 =  2.528E-09

      iter #   5 total cpu time :   204.2 secs   av.it.:   8.6
      thresh= 5.028E-06 alpha_mix =  0.700 |ddv_scf|^2 =  8.243E-10

      iter #   6 total cpu time :   207.1 secs   av.it.:   8.2
      thresh= 2.871E-06 alpha_mix =  0.700 |ddv_scf|^2 =  1.119E-12

      iter #   7 total cpu time :   209.0 secs   av.it.:   8.5
      thresh= 1.058E-07 alpha_mix =  0.700 |ddv_scf|^2 =  2.546E-14

      iter #   8 total cpu time :   209.6 secs   av.it.:   8.4
      thresh= 1.595E-08 alpha_mix =  0.700 |ddv_scf|^2 =  3.109E-16

     End of self-consistent calculation

     Convergence has been achieved 


     Representation #   2 mode #   2

     Self-consistent Calculation

      iter #   1 total cpu time :   210.6 secs   av.it.:   5.9
      thresh= 1.000E-02 alpha_mix =  0.700 |ddv_scf|^2 =  2.886E-07

      iter #   2 total cpu time :   211.4 secs   av.it.:  10.5
      thresh= 5.372E-05 alpha_mix =  0.700 |ddv_scf|^2 =  4.667E-08

      iter #   3 total cpu time :   212.3 secs   av.it.:  10.2
      thresh= 2.160E-05 alpha_mix =  0.700 |ddv_scf|^2 =  5.902E-10

      iter #   4 total cpu time :   213.8 secs   av.it.:  10.4
      thresh= 2.429E-06 alpha_mix =  0.700 |ddv_scf|^2 =  2.452E-11

      iter #   5 total cpu time :   214.6 secs   av.it.:  10.4
      thresh= 4.952E-07 alpha_mix =  0.700 |ddv_scf|^2 =  5.586E-14

      iter #   6 total cpu time :   215.4 secs   av.it.:  10.5
      thresh= 2.364E-08 alpha_mix =  0.700 |ddv_scf|^2 =  1.115E-15

      iter #   7 total cpu time :   216.2 secs   av.it.:  10.5
      thresh= 3.339E-09 alpha_mix =  0.700 |ddv_scf|^2 =  2.607E-17

     End of self-consistent calculation

     Convergence has been achieved 


     Representation #   3 modes #   3   4

     Self-consistent Calculation

      iter #   1 total cpu time :   217.4 secs   av.it.:   6.0
      thresh= 1.000E-02 alpha_mix =  0.700 |ddv_scf|^2 =  5.224E-08

      iter #   2 total cpu time :   219.1 secs   av.it.:  11.4
      thresh= 2.286E-05 alpha_mix =  0.700 |ddv_scf|^2 =  4.763E-09

      iter #   3 total cpu time :   220.8 secs   av.it.:  11.1
      thresh= 6.901E-06 alpha_mix =  0.700 |ddv_scf|^2 =  5.549E-11

      iter #   4 total cpu time :   222.7 secs   av.it.:  11.3
      thresh= 7.449E-07 alpha_mix =  0.700 |ddv_scf|^2 =  6.242E-13

      iter #   5 total cpu time :   224.9 secs   av.it.:  11.2
      thresh= 7.900E-08 alpha_mix =  0.700 |ddv_scf|^2 =  1.036E-14

      iter #   6 total cpu time :   226.8 secs   av.it.:  11.6
      thresh= 1.018E-08 alpha_mix =  0.700 |ddv_scf|^2 =  4.216E-17

     End of self-consistent calculation

     Convergence has been achieved 


     Representation #   4 modes #   5   6

     Self-consistent Calculation

      iter #   1 total cpu time :   228.2 secs   av.it.:   6.0
      thresh= 1.000E-02 alpha_mix =  0.700 |ddv_scf|^2 =  6.887E-08

      iter #   2 total cpu time :   229.9 secs   av.it.:  11.3
      thresh= 2.624E-05 alpha_mix =  0.700 |ddv_scf|^2 =  6.494E-09

      iter #   3 total cpu time :   233.7 secs   av.it.:  11.0
      thresh= 8.059E-06 alpha_mix =  0.700 |ddv_scf|^2 =  5.875E-11

      iter #   4 total cpu time :   236.2 secs   av.it.:  11.3
      thresh= 7.665E-07 alpha_mix =  0.700 |ddv_scf|^2 =  3.993E-13

      iter #   5 total cpu time :   239.1 secs   av.it.:  11.1
      thresh= 6.319E-08 alpha_mix =  0.700 |ddv_scf|^2 =  9.482E-15

      iter #   6 total cpu time :   240.8 secs   av.it.:  11.6
      thresh= 9.738E-09 alpha_mix =  0.700 |ddv_scf|^2 =  4.014E-17

     End of self-consistent calculation

     Convergence has been achieved 
 
     Number of q in the star =    6
     List of q in the star:
          1   0.000000000   0.333333333   0.000000000
          2   0.333333333   0.000000000   0.000000000
          3   0.000000000   0.000000000   0.333333333
          4   0.000000000  -0.333333333   0.000000000
          5  -0.333333333   0.000000000   0.000000000
          6   0.000000000   0.000000000  -0.333333333

     Diagonalizing the dynamical matrix

     q = (    0.000000000   0.333333333   0.000000000 ) 

 **************************************************************************
     freq (    1) =       2.948355 [THz] =      98.346542 [cm-1]
     freq (    2) =       2.948355 [THz] =      98.346542 [cm-1]
     freq (    3) =       4.953275 [THz] =     165.223468 [cm-1]
     freq (    4) =      14.670257 [THz] =     489.347101 [cm-1]
     freq (    5) =      14.670257 [THz] =     489.347101 [cm-1]
     freq (    6) =      15.143104 [THz] =     505.119583 [cm-1]
 **************************************************************************

     Mode symmetry, C_4v (4mm)  point group:

     freq (   1-   2) =         98.3  [cm-1]   --> E    G_5 D_5       
     freq (   3-   3) =        165.2  [cm-1]   --> A_1  G_1 D_1       
     freq (   4-   5) =        489.3  [cm-1]   --> E    G_5 D_5       
     freq (   6-   6) =        505.1  [cm-1]   --> B_2  G_4 D_2'      

     Calculation of q =   -0.1666667   0.5000000  -0.1666667
 
     Parallelization info
     --------------------
     sticks:   dense  smooth     PW     G-vecs:    dense   smooth      PW
     Min          71      71     22                 1489     1489     272
     Max          72      72     23                 1492     1492     277
     Sum        1003    1003    313                20875    20875    3839
 
     Using Slab Decomposition
 

     Title: 
     default                                                                    


     bravais-lattice index     =            2
     lattice parameter (alat)  =      10.1899  a.u.
     unit-cell volume          =     264.5151 (a.u.)^3
     number of atoms/cell      =            2
     number of atomic types    =            1
     number of electrons       =         8.00
     number of Kohn-Sham states=            4
     kinetic-energy cutoff     =      70.0000  Ry
     charge density cutoff     =     280.0000  Ry
     Exchange-correlation= PW
                           (   1   4   0   0   0   0   0)

     celldm(1)=  10.189905  celldm(2)=   0.000000  celldm(3)=   0.000000
     celldm(4)=   0.000000  celldm(5)=   0.000000  celldm(6)=   0.000000

     crystal axes: (cart. coord. in units of alat)
               a(1) = (  -0.500000   0.000000   0.500000 )  
               a(2) = (   0.000000   0.500000   0.500000 )  
               a(3) = (  -0.500000   0.500000   0.000000 )  

     reciprocal axes: (cart. coord. in units 2 pi/alat)
               b(1) = ( -1.000000 -1.000000  1.000000 )  
               b(2) = (  1.000000  1.000000  1.000000 )  
               b(3) = ( -1.000000  1.000000 -1.000000 )  


     PseudoPot. # 1 for Si read from file:
     ./pseudos/Si.nc.UPF
     MD5 check sum: 9e2d726316af3d4752eea8ab0afbb951
     Pseudo is Norm-conserving + core correction, Zval =  4.0
     Generated using ONCVPSP code by D. R. Hamann
     Using radial grid of 1510 points,  6 beta functions with: 
                l(1) =   0
                l(2) =   0
                l(3) =   1
                l(4) =   1
                l(5) =   2
                l(6) =   2

     atomic species   valence    mass     pseudopotential
        Si             4.00    28.08550     Si( 1.00)

     48 Sym. Ops., with inversion, found



   Cartesian axes

     site n.     atom                  positions (alat units)
         1           Si  tau(   1) = (   0.0000000   0.0000000   0.0000000  )
         2           Si  tau(   2) = (  -0.2500000   0.2500000   0.2500000  )

     number of k points=   936

     Number of k-points >= 100: set verbosity='high' to print them.

     Dense  grid:    20875 G-vectors     FFT dimensions: (  40,  40,  40)

     Estimated max dynamical RAM per process >       2.11 MB

     Estimated total dynamical RAM >      58.98 MB

     The potential is recalculated from file :
     /fastscratch/tsievers/QE_TMP_DIR/_ph0/si_ph_bench_nk_2_n_procs_28_2.save/charge-density

     Starting wfcs are    8 atomic wfcs

     Band Structure Calculation
     Davidson diagonalization with overlap

     ethr =  1.25E-10,  avg # of iterations = 12.8

     total cpu time spent up to now is       40.7 secs

     End of band structure calculation

     Number of k-points >= 100: set verbosity='high' to print the bands.

     highest occupied level (ev):     6.1106

     Writing config to output data dir /fastscratch/tsievers/QE_TMP_DIR/_ph0/si_ph_bench_nk_2_n_procs_28_2.save/

     default                                                                    

     bravais-lattice index     =            2
     lattice parameter (alat)  =      10.1899  a.u.
     unit-cell volume          =     264.5151 (a.u.)^3
     number of atoms/cell      =            2
     number of atomic types    =            1
     kinetic-energy cut-off    =      70.0000  Ry
     charge density cut-off    =     280.0000  Ry
     convergence threshold     =      1.0E-15
     beta                      =       0.7000
     number of iterations used =            4
     Exchange-correlation= PW
                           (   1   4   0   0   0   0   0)


[...]
      thresh= 2.662E-05 alpha_mix =  0.700 |ddv_scf|^2 =  3.565E-10

      iter #   5 total cpu time :  1431.0 secs   av.it.:  10.6
      thresh= 1.888E-06 alpha_mix =  0.700 |ddv_scf|^2 =  9.048E-12

      iter #   6 total cpu time :  1433.6 secs   av.it.:  10.6
      thresh= 3.008E-07 alpha_mix =  0.700 |ddv_scf|^2 =  5.311E-14

      iter #   7 total cpu time :  1436.4 secs   av.it.:  10.5
      thresh= 2.305E-08 alpha_mix =  0.700 |ddv_scf|^2 =  6.428E-15

      iter #   8 total cpu time :  1439.1 secs   av.it.:  10.5
      thresh= 8.018E-09 alpha_mix =  0.700 |ddv_scf|^2 =  1.762E-15

      iter #   9 total cpu time :  1441.6 secs   av.it.:  10.1
      thresh= 4.197E-09 alpha_mix =  0.700 |ddv_scf|^2 =  3.137E-16

     End of self-consistent calculation

     Convergence has been achieved 


     Representation #   6 mode #   6

     Self-consistent Calculation

      iter #   1 total cpu time :  1443.8 secs   av.it.:   6.3
      thresh= 1.000E-02 alpha_mix =  0.700 |ddv_scf|^2 =  2.294E-06

      iter #   2 total cpu time :  1446.4 secs   av.it.:  10.8
      thresh= 1.515E-04 alpha_mix =  0.700 |ddv_scf|^2 =  2.516E-06

      iter #   3 total cpu time :  1448.9 secs   av.it.:   9.9
      thresh= 1.586E-04 alpha_mix =  0.700 |ddv_scf|^2 =  6.160E-08

      iter #   4 total cpu time :  1451.3 secs   av.it.:  10.0
      thresh= 2.482E-05 alpha_mix =  0.700 |ddv_scf|^2 =  2.010E-10

      iter #   5 total cpu time :  1453.9 secs   av.it.:  10.5
      thresh= 1.418E-06 alpha_mix =  0.700 |ddv_scf|^2 =  3.786E-12

      iter #   6 total cpu time :  1456.5 secs   av.it.:  10.6
      thresh= 1.946E-07 alpha_mix =  0.700 |ddv_scf|^2 =  1.773E-14

      iter #   7 total cpu time :  1459.1 secs   av.it.:  10.5
      thresh= 1.331E-08 alpha_mix =  0.700 |ddv_scf|^2 =  1.016E-15

      iter #   8 total cpu time :  1462.0 secs   av.it.:  10.7
      thresh= 3.187E-09 alpha_mix =  0.700 |ddv_scf|^2 =  2.337E-17

     End of self-consistent calculation

     Convergence has been achieved 
 
     Number of q in the star =   24
     List of q in the star:
          1   0.500000000  -0.166666667   0.833333333
          2   0.833333333   0.166666667   0.500000000
          3   0.500000000   0.166666667   0.833333333
          4  -0.833333333  -0.166666667   0.500000000
          5  -0.833333333  -0.166666667  -0.500000000
          6  -0.500000000  -0.166666667  -0.833333333
          7   0.833333333  -0.166666667   0.500000000
          8  -0.500000000  -0.166666667   0.833333333
          9  -0.833333333   0.166666667   0.500000000
         10   0.833333333   0.166666667  -0.500000000
         11   0.833333333  -0.166666667  -0.500000000
         12   0.500000000   0.166666667  -0.833333333
         13  -0.500000000   0.166666667   0.833333333
         14  -0.500000000   0.166666667  -0.833333333
         15  -0.833333333   0.166666667  -0.500000000
         16   0.833333333  -0.500000000   0.166666667
         17   0.833333333   0.500000000  -0.166666667
         18  -0.833333333  -0.500000000  -0.166666667
         19  -0.833333333   0.500000000   0.166666667
         20   0.166666667  -0.500000000   0.833333333
         21  -0.166666667   0.500000000   0.833333333
         22   0.166666667   0.500000000  -0.833333333
         23  -0.166666667  -0.500000000  -0.833333333
         24  -0.500000000   0.833333333   0.166666667

     Diagonalizing the dynamical matrix

     q = (    0.500000000  -0.166666667   0.833333333 ) 

 **************************************************************************
     freq (    1) =       5.051950 [THz] =     168.514916 [cm-1]
     freq (    2) =       6.066624 [THz] =     202.360787 [cm-1]
     freq (    3) =       9.812821 [THz] =     327.320460 [cm-1]
     freq (    4) =      11.453205 [THz] =     382.037802 [cm-1]
     freq (    5) =      14.041862 [THz] =     468.386083 [cm-1]
     freq (    6) =      14.270916 [THz] =     476.026505 [cm-1]
 **************************************************************************

     Calculation of q =   -0.3333333  -1.0000000   0.0000000
 
     Parallelization info
     --------------------
     sticks:   dense  smooth     PW     G-vecs:    dense   smooth      PW
     Min          71      71     24                 1489     1489     305
     Max          72      72     25                 1492     1492     307
     Sum        1003    1003    349                20875    20875    4279
 
     Using Slab Decomposition
 

     Title: 
     default                                                                    


     bravais-lattice index     =            2
     lattice parameter (alat)  =      10.1899  a.u.
     unit-cell volume          =     264.5151 (a.u.)^3
     number of atoms/cell      =            2
     number of atomic types    =            1
     number of electrons       =         8.00
     number of Kohn-Sham states=            4
     kinetic-energy cutoff     =      70.0000  Ry
     charge density cutoff     =     280.0000  Ry
     Exchange-correlation= PW
                           (   1   4   0   0   0   0   0)

     celldm(1)=  10.189905  celldm(2)=   0.000000  celldm(3)=   0.000000
     celldm(4)=   0.000000  celldm(5)=   0.000000  celldm(6)=   0.000000

     crystal axes: (cart. coord. in units of alat)
               a(1) = (  -0.500000   0.000000   0.500000 )  
               a(2) = (   0.000000   0.500000   0.500000 )  
               a(3) = (  -0.500000   0.500000   0.000000 )  

     reciprocal axes: (cart. coord. in units 2 pi/alat)
               b(1) = ( -1.000000 -1.000000  1.000000 )  
               b(2) = (  1.000000  1.000000  1.000000 )  
               b(3) = ( -1.000000  1.000000 -1.000000 )  


     PseudoPot. # 1 for Si read from file:
     ./pseudos/Si.nc.UPF
     MD5 check sum: 9e2d726316af3d4752eea8ab0afbb951
     Pseudo is Norm-conserving + core correction, Zval =  4.0
     Generated using ONCVPSP code by D. R. Hamann
     Using radial grid of 1510 points,  6 beta functions with: 
                l(1) =   0
                l(2) =   0
                l(3) =   1
                l(4) =   1
                l(5) =   2
                l(6) =   2

     atomic species   valence    mass     pseudopotential
        Si             4.00    28.08550     Si( 1.00)

     48 Sym. Ops., with inversion, found



   Cartesian axes

     site n.     atom                  positions (alat units)
         1           Si  tau(   1) = (   0.0000000   0.0000000   0.0000000  )
         2           Si  tau(   2) = (  -0.2500000   0.2500000   0.2500000  )

     number of k points=   432

     Number of k-points >= 100: set verbosity='high' to print them.

     Dense  grid:    20875 G-vectors     FFT dimensions: (  40,  40,  40)

     Estimated max dynamical RAM per process >       2.13 MB

     Estimated total dynamical RAM >      59.68 MB

     The potential is recalculated from file :
     /fastscratch/tsievers/QE_TMP_DIR/_ph0/si_ph_bench_nk_2_n_procs_28_2.save/charge-density

     Starting wfcs are    8 atomic wfcs

     Band Structure Calculation
     Davidson diagonalization with overlap

     ethr =  1.25E-10,  avg # of iterations = 12.8

     total cpu time spent up to now is      167.2 secs

     End of band structure calculation

     Number of k-points >= 100: set verbosity='high' to print the bands.

     highest occupied level (ev):     6.1106

     Writing config to output data dir /fastscratch/tsievers/QE_TMP_DIR/_ph0/si_ph_bench_nk_2_n_procs_28_2.save/

     default                                                                    

     bravais-lattice index     =            2
     lattice parameter (alat)  =      10.1899  a.u.
     unit-cell volume          =     264.5151 (a.u.)^3
     number of atoms/cell      =            2
     number of atomic types    =            1
     kinetic-energy cut-off    =      70.0000  Ry
     charge density cut-off    =     280.0000  Ry
     convergence threshold     =      1.0E-15
     beta                      =       0.7000
     number of iterations used =            4
     Exchange-correlation= PW
                           (   1   4   0   0   0   0   0)


     celldm(1)=   10.18990  celldm(2)=    0.00000  celldm(3)=    0.00000
     celldm(4)=    0.00000  celldm(5)=    0.00000  celldm(6)=    0.00000

     crystal axes: (cart. coord. in units of alat)
               a(1) = ( -0.5000  0.0000  0.5000 )  
               a(2) = (  0.0000  0.5000  0.5000 )  
               a(3) = ( -0.5000  0.5000  0.0000 )  

     reciprocal axes: (cart. coord. in units 2 pi/alat)
               b(1) = ( -1.0000 -1.0000  1.0000 )  
               b(2) = (  1.0000  1.0000  1.0000 )  
               b(3) = ( -1.0000  1.0000 -1.0000 )  


     Atoms inside the unit cell: 

     Cartesian axes

     site n.  atom      mass           positions (alat units)
        1     Si  28.0855   tau(    1) = (    0.00000    0.00000    0.00000  )
        2     Si  28.0855   tau(    2) = (   -0.25000    0.25000    0.25000  )

     Computing dynamical matrix for 
                    q = (  -0.3333333  -1.0000000   0.0000000 )
 
      4 Sym.Ops. (no q -> -q+G )


     G cutoff =  736.4420  (   1492 G-vectors)     FFT grid: ( 40, 40, 40)
     number of k points=   432

     PseudoPot. # 1 for Si read from file:
     ./pseudos/Si.nc.UPF
     MD5 check sum: 9e2d726316af3d4752eea8ab0afbb951
     Pseudo is Norm-conserving + core correction, Zval =  4.0
     Generated using ONCVPSP code by D. R. Hamann
     Using radial grid of 1510 points,  6 beta functions with: 
                l(1) =   0
                l(2) =   0
                l(3) =   1
                l(4) =   1
                l(5) =   2
                l(6) =   2


     Atomic displacements:
     There are    3 irreducible representations

     Representation     1      2 modes -  To be done

     Representation     2      2 modes -  To be done

     Representation     3      2 modes -  To be done



     Alpha used in Ewald sum =   2.8000
     PHONON       :  21m30.40s CPU  24m31.49s WALL



     Representation #   1 modes #   1   2

     Self-consistent Calculation

      iter #   1 total cpu time :  1473.4 secs   av.it.:   6.2
      thresh= 1.000E-02 alpha_mix =  0.700 |ddv_scf|^2 =  4.573E-07

      iter #   2 total cpu time :  1476.7 secs   av.it.:  11.4
      thresh= 6.763E-05 alpha_mix =  0.700 |ddv_scf|^2 =  5.100E-07

      iter #   3 total cpu time :  1479.4 secs   av.it.:  10.8
      thresh= 7.141E-05 alpha_mix =  0.700 |ddv_scf|^2 =  4.153E-09

      iter #   4 total cpu time :  1482.2 secs   av.it.:  11.0
      thresh= 6.445E-06 alpha_mix =  0.700 |ddv_scf|^2 =  8.427E-11

      iter #   5 total cpu time :  1485.0 secs   av.it.:  11.1
      thresh= 9.180E-07 alpha_mix =  0.700 |ddv_scf|^2 =  9.729E-13

      iter #   6 total cpu time :  1487.8 secs   av.it.:  11.3
      thresh= 9.863E-08 alpha_mix =  0.700 |ddv_scf|^2 =  1.949E-14

      iter #   7 total cpu time :  1490.7 secs   av.it.:  11.2
      thresh= 1.396E-08 alpha_mix =  0.700 |ddv_scf|^2 =  1.017E-15

      iter #   8 total cpu time :  1493.4 secs   av.it.:  11.2
      thresh= 3.189E-09 alpha_mix =  0.700 |ddv_scf|^2 =  2.804E-17

     End of self-consistent calculation

     Convergence has been achieved 


     Representation #   2 modes #   3   4

     Self-consistent Calculation

      iter #   1 total cpu time :  1495.7 secs   av.it.:   6.4
      thresh= 1.000E-02 alpha_mix =  0.700 |ddv_scf|^2 =  8.292E-07

      iter #   2 total cpu time :  1498.5 secs   av.it.:  11.4
      thresh= 9.106E-05 alpha_mix =  0.700 |ddv_scf|^2 =  9.299E-07

      iter #   3 total cpu time :  1501.4 secs   av.it.:  10.8
      thresh= 9.643E-05 alpha_mix =  0.700 |ddv_scf|^2 =  8.036E-09

      iter #   4 total cpu time :  1504.4 secs   av.it.:  11.0
      thresh= 8.964E-06 alpha_mix =  0.700 |ddv_scf|^2 =  8.383E-11

      iter #   5 total cpu time :  1508.2 secs   av.it.:  11.2
      thresh= 9.156E-07 alpha_mix =  0.700 |ddv_scf|^2 =  1.910E-12

      iter #   6 total cpu time :  1511.0 secs   av.it.:  11.3
      thresh= 1.382E-07 alpha_mix =  0.700 |ddv_scf|^2 =  1.516E-14

      iter #   7 total cpu time :  1513.7 secs   av.it.:  11.2
      thresh= 1.231E-08 alpha_mix =  0.700 |ddv_scf|^2 =  9.612E-16

     End of self-consistent calculation

     Convergence has been achieved 


     Representation #   3 modes #   5   6

     Self-consistent Calculation

      iter #   1 total cpu time :  1515.8 secs   av.it.:   6.5
      thresh= 1.000E-02 alpha_mix =  0.700 |ddv_scf|^2 =  1.098E-06

      iter #   2 total cpu time :  1518.6 secs   av.it.:  11.4
      thresh= 1.048E-04 alpha_mix =  0.700 |ddv_scf|^2 =  1.205E-06

      iter #   3 total cpu time :  1521.3 secs   av.it.:  10.7
      thresh= 1.098E-04 alpha_mix =  0.700 |ddv_scf|^2 =  9.727E-09

      iter #   4 total cpu time :  1524.0 secs   av.it.:  10.8
      thresh= 9.863E-06 alpha_mix =  0.700 |ddv_scf|^2 =  6.606E-11

      iter #   5 total cpu time :  1526.8 secs   av.it.:  11.2
      thresh= 8.128E-07 alpha_mix =  0.700 |ddv_scf|^2 =  6.261E-13

      iter #   6 total cpu time :  1529.7 secs   av.it.:  11.2
      thresh= 7.913E-08 alpha_mix =  0.700 |ddv_scf|^2 =  1.101E-14

      iter #   7 total cpu time :  1532.4 secs   av.it.:  11.2
      thresh= 1.049E-08 alpha_mix =  0.700 |ddv_scf|^2 =  6.598E-16

     End of self-consistent calculation

     Convergence has been achieved 
 
     Number of q in the star =   12
     List of q in the star:
          1  -0.333333333  -1.000000000   0.000000000
          2   0.000000000  -1.000000000  -0.333333333
          3   0.000000000  -1.000000000   0.333333333
          4   0.333333333  -1.000000000   0.000000000
          5  -1.000000000   0.000000000  -0.333333333
          6   1.000000000   0.000000000   0.333333333
          7   0.000000000   0.333333333   1.000000000
          8   0.000000000  -0.333333333  -1.000000000
          9  -1.000000000  -0.333333333   0.000000000
         10   1.000000000   0.333333333   0.000000000
         11  -0.333333333   0.000000000   1.000000000
         12   0.333333333   0.000000000   1.000000000

     Diagonalizing the dynamical matrix

     q = (   -0.333333333  -1.000000000   0.000000000 ) 

 **************************************************************************
     freq (    1) =       5.494441 [THz] =     183.274815 [cm-1]
     freq (    2) =       5.494441 [THz] =     183.274815 [cm-1]
     freq (    3) =      10.966334 [THz] =     365.797524 [cm-1]
     freq (    4) =      10.966334 [THz] =     365.797524 [cm-1]
     freq (    5) =      14.002304 [THz] =     467.066599 [cm-1]
     freq (    6) =      14.002304 [THz] =     467.066599 [cm-1]
 **************************************************************************
 
     init_run     :      0.28s CPU      0.37s WALL (      15 calls)
     electrons    :    152.69s CPU    155.84s WALL (      15 calls)

     Called by init_run:
     wfcinit      :      0.00s CPU      0.03s WALL (      15 calls)
     potinit      :      0.02s CPU      0.03s WALL (      15 calls)
     hinit0       :      0.13s CPU      0.13s WALL (      15 calls)

     Called by electrons:
     c_bands      :    152.69s CPU    155.83s WALL (      15 calls)
     v_of_rho     :      0.01s CPU      0.01s WALL (      16 calls)

     Called by c_bands:
     init_us_2    :      8.27s CPU      8.74s WALL (  127043 calls)
     init_us_2:cp :      7.97s CPU      8.46s WALL (  127043 calls)
     cegterg      :     98.62s CPU    101.17s WALL (    4192 calls)

     Called by *egterg:
     cdiaghg      :     50.40s CPU     51.65s WALL (   59253 calls)
     h_psi        :    656.53s CPU    692.58s WALL ( 1261618 calls)
     g_psi        :      0.32s CPU      0.33s WALL (   55061 calls)

     Called by h_psi:
     h_psi:calbec :     49.42s CPU     52.11s WALL ( 1261618 calls)
     vloc_psi     :    563.77s CPU    594.80s WALL ( 1261618 calls)
     add_vuspsi   :     32.48s CPU     34.67s WALL ( 1261618 calls)

     General routines
     calbec       :     83.35s CPU     88.74s WALL ( 2531573 calls)
     fft          :      0.59s CPU      0.61s WALL (    3841 calls)
     ffts         :      1.40s CPU      1.46s WALL (   13200 calls)
     fftw         :    631.32s CPU    665.80s WALL (10670634 calls)
     davcio       :      5.16s CPU     20.52s WALL (  540579 calls)
 
     Parallel routines
 
     PHONON       :  22m25.65s CPU  25m34.04s WALL

     INITIALIZATION: 
     phq_setup    :      0.02s CPU      0.08s WALL (      16 calls)
     phq_init     :      2.96s CPU      3.81s WALL (      16 calls)
 
     phq_init     :      2.96s CPU      3.81s WALL (      16 calls)
     set_drhoc    :      0.64s CPU      0.66s WALL (      48 calls)
     init_vloc    :      0.04s CPU      0.04s WALL (      16 calls)
     init_us_1    :      0.04s CPU      0.04s WALL (      16 calls)
     init_us_2    :      8.27s CPU      8.74s WALL (  127043 calls)
 
     DYNAMICAL MATRIX:
     dynmat0      :      2.03s CPU      2.81s WALL (      16 calls)
     phqscf       :   1179.22s CPU   1337.55s WALL (      16 calls)
     dynmatrix    :      0.50s CPU      0.58s WALL (      16 calls)
 
     phqscf       :   1179.22s CPU   1337.55s WALL (      16 calls)
     solve_linter :   1175.38s CPU   1328.19s WALL (      76 calls)
     drhodv       :      3.76s CPU      3.97s WALL (      76 calls)
 
     dynmat0      :      2.03s CPU      2.81s WALL (      16 calls)
     dynmat_us    :      1.55s CPU      1.59s WALL (      16 calls)
     d2ionq       :      0.01s CPU      0.01s WALL (      16 calls)
     dynmatcc     :      0.45s CPU      0.45s WALL (      16 calls)
 
     dynmat_us    :      1.55s CPU      1.59s WALL (      16 calls)
 
     phqscf       :   1179.22s CPU   1337.55s WALL (      16 calls)
     solve_linter :   1175.38s CPU   1328.19s WALL (      76 calls)
 
     solve_linter :   1175.38s CPU   1328.19s WALL (      76 calls)
     dvqpsi_us    :     10.34s CPU     10.83s WALL (   12744 calls)
     sth_kernel   :   1076.18s CPU   1138.43s WALL (     601 calls)
     apply_dpot_b :     49.17s CPU     52.16s WALL (   90467 calls)
     ortho        :      3.03s CPU      3.22s WALL (  103211 calls)
     cgsolve      :    716.11s CPU    756.66s WALL (  103211 calls)
     incdrhoscf   :     72.63s CPU     75.88s WALL (  103169 calls)
     dv_of_drho   :      0.27s CPU      0.27s WALL (     730 calls)
     mix_pot      :      3.83s CPU     62.16s WALL (     601 calls)
     psymdvscf    :      8.72s CPU      8.77s WALL (     596 calls)
 
     dvqpsi_us    :     10.34s CPU     10.83s WALL (   12744 calls)
     dvqpsi_us_on :      2.03s CPU      2.13s WALL (   12744 calls)
 
     cgsolve      :    716.11s CPU    756.66s WALL (  103211 calls)
     ch_psi       :    696.94s CPU    736.17s WALL ( 1198173 calls)
 
     ch_psi       :    696.94s CPU    736.17s WALL ( 1198173 calls)
     h_psi        :    656.53s CPU    692.58s WALL ( 1261618 calls)
     last         :     64.28s CPU     67.92s WALL ( 1198173 calls)
 
     h_psi        :    656.53s CPU    692.58s WALL ( 1261618 calls)
     add_vuspsi   :     32.48s CPU     34.67s WALL ( 1261618 calls)
 
     incdrhoscf   :     72.63s CPU     75.88s WALL (  103169 calls)
 
 
      General routines
     calbec       :     83.35s CPU     88.74s WALL ( 2531573 calls)
     fft          :      0.59s CPU      0.61s WALL (    3841 calls)
     ffts         :      1.40s CPU      1.46s WALL (   13200 calls)
     fftw         :    631.32s CPU    665.80s WALL (10670634 calls)
     davcio       :      5.16s CPU     20.52s WALL (  540579 calls)
     write_rec    :      0.98s CPU     38.47s WALL (     677 calls)
 
 
     PHONON       :  22m25.65s CPU  25m34.04s WALL

 
   This run was terminated on:   5:12:26  28Apr2022            

=------------------------------------------------------------------------------=
   JOB DONE.
=------------------------------------------------------------------------------=
real 1537.77
user 27557.04
sys 1023.29
