Module for intel-oneAPI 2021.4 loaded.
 
:: initializing oneAPI environment ...
   2636538: BASH_VERSION = 4.4.20(1)-release
:: advisor -- latest
:: ccl -- latest
:: clck -- latest
:: compiler -- latest
:: dal -- latest
:: debugger -- latest
:: dev-utilities -- latest
:: dnnl -- latest
:: dpcpp-ct -- latest
:: dpl -- latest
:: inspector -- latest
:: intelpython -- latest
:: ipp -- latest
:: ippcp -- latest
:: ipp -- latest
:: itac -- latest
:: LPOT -- latest
:: mkl -- latest
:: modelzoo -- latest
:: mpi -- latest
:: pytorch -- latest
:: tbb -- latest
:: tensorflow -- latest
:: vpl -- latest
:: vtune -- latest
:: oneAPI environment initialized ::
 

     Program PWSCF v.7.0 starts on 28Apr2022 at 14: 7:47 

     This program is part of the open-source Quantum ESPRESSO suite
     for quantum simulation of materials; please cite
         "P. Giannozzi et al., J. Phys.:Condens. Matter 21 395502 (2009);
         "P. Giannozzi et al., J. Phys.:Condens. Matter 29 465901 (2017);
         "P. Giannozzi et al., J. Chem. Phys. 152 154105 (2020);
          URL http://www.quantum-espresso.org", 
     in publications or presentations arising from this work. More details at
     http://www.quantum-espresso.org/quote

     Parallel version (MPI), running on    28 processors

     MPI processes distributed on     2 nodes
     K-points division:     npool     =       2
     R & G space division:  proc/nbgrp/npool/nimage =      14
     56807 MiB available memory on the printing compute node when the environment starts
 
     Reading input from in_files/si_ph_bench_nk_2_n_procs_28_4.scf

     Current dimensions of program PWSCF are:
     Max number of different atomic species (ntypx) = 10
     Max number of k-points (npk) =  40000
     Max angular momentum in pseudopotentials (lmaxx) =  4

     Subspace diagonalization in iterative solution of the eigenvalue problem:
     one sub-group per band group will be used
     scalapack distributed-memory algorithm (size of sub-group:  3*  3 procs)

 
     Parallelization info
     --------------------
     sticks:   dense  smooth     PW     G-vecs:    dense   smooth      PW
     Min          71      71     21                 1489     1489     247
     Max          72      72     22                 1492     1492     250
     Sum        1003    1003    301                20875    20875    3479
 
     Using Slab Decomposition
 


     bravais-lattice index     =            2
     lattice parameter (alat)  =      10.1899  a.u.
     unit-cell volume          =     264.5151 (a.u.)^3
     number of atoms/cell      =            2
     number of atomic types    =            1
     number of electrons       =         8.00
     number of Kohn-Sham states=            4
     kinetic-energy cutoff     =      70.0000  Ry
     charge density cutoff     =     280.0000  Ry
     scf convergence threshold =      1.0E-10
     mixing beta               =       0.7000
     number of iterations used =            8  plain     mixing
     Exchange-correlation= SLA  PW   NOGX NOGC
                           (   1   4   0   0   0   0   0)

     celldm(1)=  10.189905  celldm(2)=   0.000000  celldm(3)=   0.000000
     celldm(4)=   0.000000  celldm(5)=   0.000000  celldm(6)=   0.000000

     crystal axes: (cart. coord. in units of alat)
               a(1) = (  -0.500000   0.000000   0.500000 )  
               a(2) = (   0.000000   0.500000   0.500000 )  
               a(3) = (  -0.500000   0.500000   0.000000 )  

     reciprocal axes: (cart. coord. in units 2 pi/alat)
               b(1) = ( -1.000000 -1.000000  1.000000 )  
               b(2) = (  1.000000  1.000000  1.000000 )  
               b(3) = ( -1.000000  1.000000 -1.000000 )  


     PseudoPot. # 1 for Si read from file:
     ./pseudos/Si.nc.UPF
     MD5 check sum: 9e2d726316af3d4752eea8ab0afbb951
     Pseudo is Norm-conserving + core correction, Zval =  4.0
     Generated using ONCVPSP code by D. R. Hamann
     Using radial grid of 1510 points,  6 beta functions with: 
                l(1) =   0
                l(2) =   0
                l(3) =   1
                l(4) =   1
                l(5) =   2
                l(6) =   2

     atomic species   valence    mass     pseudopotential
        Si             4.00    28.08550     Si( 1.00)

     48 Sym. Ops., with inversion, found (24 have fractional translation)



   Cartesian axes

     site n.     atom                  positions (alat units)
         1           Si  tau(   1) = (   0.0000000   0.0000000   0.0000000  )
         2           Si  tau(   2) = (  -0.2500000   0.2500000   0.2500000  )

     number of k points=    28
                       cart. coord. in units 2pi/alat
        k(    1) = (  -0.0833333   0.0833333   0.0833333), wk =   0.0185185
        k(    2) = (  -0.2500000   0.2500000  -0.0833333), wk =   0.0555556
        k(    3) = (  -0.4166667   0.4166667  -0.2500000), wk =   0.0555556
        k(    4) = (   0.4166667  -0.4166667   0.5833333), wk =   0.0555556
        k(    5) = (   0.2500000  -0.2500000   0.4166667), wk =   0.0555556
        k(    6) = (   0.0833333  -0.0833333   0.2500000), wk =   0.0555556
        k(    7) = (  -0.0833333   0.4166667   0.0833333), wk =   0.0555556
        k(    8) = (  -0.2500000   0.5833333  -0.0833333), wk =   0.1111111
        k(    9) = (   0.5833333  -0.2500000   0.7500000), wk =   0.1111111
        k(   10) = (   0.4166667  -0.0833333   0.5833333), wk =   0.1111111
        k(   11) = (   0.2500000   0.0833333   0.4166667), wk =   0.1111111
        k(   12) = (  -0.0833333   0.7500000   0.0833333), wk =   0.0555556
        k(   13) = (   0.7500000  -0.0833333   0.9166667), wk =   0.1111111
        k(   14) = (   0.5833333   0.0833333   0.7500000), wk =   0.1111111
        k(   15) = (   0.4166667   0.2500000   0.5833333), wk =   0.1111111
        k(   16) = (  -0.0833333  -0.9166667   0.0833333), wk =   0.0555556
        k(   17) = (  -0.2500000  -0.7500000  -0.0833333), wk =   0.1111111
        k(   18) = (  -0.0833333  -0.5833333   0.0833333), wk =   0.0555556
        k(   19) = (  -0.2500000   0.2500000   0.2500000), wk =   0.0185185
        k(   20) = (  -0.4166667   0.4166667   0.0833333), wk =   0.0555556
        k(   21) = (   0.4166667  -0.4166667   0.9166667), wk =   0.0555556
        k(   22) = (   0.2500000  -0.2500000   0.7500000), wk =   0.0555556
        k(   23) = (  -0.2500000   0.5833333   0.2500000), wk =   0.0555556
        k(   24) = (   0.5833333  -0.2500000   1.0833333), wk =   0.1111111
        k(   25) = (   0.4166667  -0.0833333   0.9166667), wk =   0.1111111
        k(   26) = (  -0.2500000  -1.0833333   0.2500000), wk =   0.0555556
        k(   27) = (  -0.4166667   0.4166667   0.4166667), wk =   0.0185185
        k(   28) = (   0.4166667  -0.4166667   1.2500000), wk =   0.0555556

     Dense  grid:    20875 G-vectors     FFT dimensions: (  40,  40,  40)

     Estimated max dynamical RAM per process >       2.61 MB

     Estimated total dynamical RAM >      68.08 MB

     Initial potential from superposition of free atoms

     starting charge       7.9989, renormalised to       8.0000
     Starting wfcs are    8 randomized atomic wfcs

     total cpu time spent up to now is       15.6 secs

     Self-consistent Calculation

     iteration #  1     ecut=    70.00 Ry     beta= 0.70
     Davidson diagonalization with overlap
     ethr =  1.00E-02,  avg # of iterations =  2.0

     Threshold (ethr) on eigenvalues was too large:
     Diagonalizing with lowered threshold

     Davidson diagonalization with overlap
     ethr =  6.13E-04,  avg # of iterations =  2.0

     total cpu time spent up to now is       29.3 secs

     total energy              =     -17.04764065 Ry
     estimated scf accuracy    <       0.05801456 Ry

     iteration #  2     ecut=    70.00 Ry     beta= 0.70
     Davidson diagonalization with overlap
     ethr =  7.25E-04,  avg # of iterations =  1.0

     total cpu time spent up to now is       30.8 secs

     total energy              =     -17.04996147 Ry
     estimated scf accuracy    <       0.00249197 Ry

     iteration #  3     ecut=    70.00 Ry     beta= 0.70
     Davidson diagonalization with overlap
     ethr =  3.11E-05,  avg # of iterations =  3.1

     total cpu time spent up to now is       34.1 secs

     total energy              =     -17.05082792 Ry
     estimated scf accuracy    <       0.00009785 Ry

     iteration #  4     ecut=    70.00 Ry     beta= 0.70
     Davidson diagonalization with overlap
     ethr =  1.22E-06,  avg # of iterations =  4.3

     total cpu time spent up to now is       42.1 secs

     total energy              =     -17.05089803 Ry
     estimated scf accuracy    <       0.00000388 Ry

     iteration #  5     ecut=    70.00 Ry     beta= 0.70
     Davidson diagonalization with overlap
     ethr =  4.85E-08,  avg # of iterations =  4.3

     total cpu time spent up to now is       44.2 secs

     total energy              =     -17.05090097 Ry
     estimated scf accuracy    <       0.00000016 Ry

     iteration #  6     ecut=    70.00 Ry     beta= 0.70
     Davidson diagonalization with overlap
     ethr =  1.95E-09,  avg # of iterations =  3.8

     total cpu time spent up to now is       49.1 secs

     total energy              =     -17.05090106 Ry
     estimated scf accuracy    <       0.00000001 Ry

     iteration #  7     ecut=    70.00 Ry     beta= 0.70
     Davidson diagonalization with overlap
     ethr =  1.69E-10,  avg # of iterations =  3.0

     total cpu time spent up to now is       56.0 secs

     End of self-consistent calculation

          k =-0.0833 0.0833 0.0833 (  2667 PWs)   bands (ev):

    -5.7561   5.3866   6.1106   6.1106

          k =-0.2500 0.2500-0.0833 (  2621 PWs)   bands (ev):

    -5.2692   3.2787   4.8359   5.9020

          k =-0.4167 0.4167-0.2500 (  2618 PWs)   bands (ev):

    -4.1491   0.4558   4.3704   5.2525

          k = 0.4167-0.4167 0.5833 (  2604 PWs)   bands (ev):

    -3.4238  -0.7235   4.4440   4.8612

          k = 0.2500-0.2500 0.4167 (  2618 PWs)   bands (ev):

    -4.5725   1.3222   4.9163   4.9543

          k = 0.0833-0.0833 0.2500 (  2643 PWs)   bands (ev):

    -5.5104   4.3092   5.4447   5.6431

          k =-0.0833 0.4167 0.0833 (  2627 PWs)   bands (ev):

    -5.0231   3.1094   4.6844   4.6977

          k =-0.2500 0.5833-0.0833 (  2613 PWs)   bands (ev):

    -4.0918   1.2428   3.3199   4.3008

          k = 0.5833-0.2500 0.7500 (  2616 PWs)   bands (ev):

    -2.9383  -0.5645   2.7090   4.0652

          k = 0.4167-0.0833 0.5833 (  2617 PWs)   bands (ev):

    -3.6856   0.5301   2.6549   4.5685

          k = 0.2500 0.0833 0.4167 (  2624 PWs)   bands (ev):

    -4.7922   2.2460   4.0374   5.2604

          k =-0.0833 0.7500 0.0833 (  2617 PWs)   bands (ev):

    -3.3664   0.4197   3.2861   3.6484

          k = 0.7500-0.0833 0.9167 (  2608 PWs)   bands (ev):

    -2.1400  -0.9430   2.4039   3.2177

          k = 0.5833 0.0833 0.7500 (  2608 PWs)   bands (ev):

    -2.5099  -0.6178   1.9049   3.7798

          k = 0.4167 0.2500 0.5833 (  2622 PWs)   bands (ev):

    -3.5664  -0.1967   3.6417   4.6731

          k =-0.0833-0.9167 0.0833 (  2604 PWs)   bands (ev):

    -2.2385  -0.9535   3.0091   3.4291

          k =-0.2500-0.7500-0.0833 (  2615 PWs)   bands (ev):

    -3.1914   0.1893   2.7413   3.5675

          k =-0.0833-0.5833 0.0833 (  2620 PWs)   bands (ev):

    -4.3033   1.8032   3.8480   4.0788

          k =-0.2500 0.2500 0.2500 (  2632 PWs)   bands (ev):

    -5.0343   2.2731   5.4857   5.4857

          k =-0.4167 0.4167 0.0833 (  2620 PWs)   bands (ev):

    -4.3392   1.3430   3.2813   5.3165

          k = 0.4167-0.4167 0.9167 (  2613 PWs)   bands (ev):

    -3.1274  -0.1140   2.1362   4.5076

          k = 0.2500-0.2500 0.7500 (  2618 PWs)   bands (ev):

    -3.0761  -0.1941   2.6355   4.0115

          k =-0.2500 0.5833 0.2500 (  2613 PWs)   bands (ev):

    -3.9042   0.5133   3.7736   4.3933

          k = 0.5833-0.2500 1.0833 (  2619 PWs)   bands (ev):

    -2.8765  -0.2149   2.2381   3.5572

          k = 0.4167-0.0833 0.9167 (  2613 PWs)   bands (ev):

    -2.0245  -0.9506   2.0592   2.8637

          k =-0.2500-1.0833 0.2500 (  2605 PWs)   bands (ev):

    -2.2385  -0.8649   1.9289   3.8127

          k =-0.4167 0.4167 0.4167 (  2602 PWs)   bands (ev):

    -3.8074  -0.3119   5.0941   5.0941

          k = 0.4167-0.4167 1.2500 (  2605 PWs)   bands (ev):

    -3.1840  -0.6106   3.2018   4.6388

     highest occupied level (ev):     6.1106

!    total energy              =     -17.05090107 Ry
     estimated scf accuracy    <          6.8E-11 Ry

     The total energy is the sum of the following terms:
     one-electron contribution =       5.01080630 Ry
     hartree contribution      =       1.07710399 Ry
     xc contribution           =      -6.22231009 Ry
     ewald contribution        =     -16.91650128 Ry

     convergence has been achieved in   7 iterations

     Forces acting on atoms (cartesian axes, Ry/au):

     atom    1 type  1   force =    -0.00000000   -0.00000000   -0.00000000
     atom    2 type  1   force =     0.00000000    0.00000000    0.00000000

     Total force =     0.000000     Total SCF correction =     0.000000

     Writing all to output data dir /fastscratch/tsievers/QE_TMP_DIR/si_ph_bench_nk_2_n_procs_28_4.save/
 
     init_run     :      5.63s CPU      5.68s WALL (       1 calls)
     electrons    :     41.03s CPU     41.11s WALL (       1 calls)
     forces       :      0.18s CPU      0.18s WALL (       1 calls)

     Called by init_run:
     wfcinit      :      4.82s CPU      4.83s WALL (       1 calls)
     potinit      :      0.26s CPU      0.26s WALL (       1 calls)
     hinit0       :      0.09s CPU      0.11s WALL (       1 calls)

     Called by electrons:
     c_bands      :     36.93s CPU     36.97s WALL (       8 calls)
     sum_band     :      2.26s CPU      2.27s WALL (       8 calls)
     v_of_rho     :      0.90s CPU      0.90s WALL (       8 calls)
     mix_rho      :      0.10s CPU      0.10s WALL (       8 calls)

     Called by c_bands:
     init_us_2    :      0.02s CPU      0.02s WALL (     252 calls)
     init_us_2:cp :      0.02s CPU      0.02s WALL (     252 calls)
     cegterg      :     34.70s CPU     34.72s WALL (     112 calls)

     Called by *egterg:
     cdiaghg      :      4.96s CPU      4.97s WALL (     444 calls)
     h_psi        :     12.70s CPU     12.71s WALL (     472 calls)
     g_psi        :      0.00s CPU      0.00s WALL (     346 calls)

     Called by h_psi:
     h_psi:calbec :      2.78s CPU      2.78s WALL (     472 calls)
     vloc_psi     :      9.90s CPU      9.91s WALL (     472 calls)
     add_vuspsi   :      0.01s CPU      0.01s WALL (     472 calls)

     General routines
     calbec       :      2.82s CPU      2.82s WALL (     528 calls)
     fft          :      0.14s CPU      0.16s WALL (      28 calls)
     ffts         :      0.15s CPU      0.15s WALL (       8 calls)
     fftw         :     11.43s CPU     11.44s WALL (    3570 calls)
 
     Parallel routines
 
     PWSCF        :   1m 3.36s CPU   1m 3.81s WALL

 
   This run was terminated on:  14: 8:51  28Apr2022            

=------------------------------------------------------------------------------=
   JOB DONE.
=------------------------------------------------------------------------------=

     Program PHONON v.7.0 starts on 28Apr2022 at 14: 8:56 

     This program is part of the open-source Quantum ESPRESSO suite
     for quantum simulation of materials; please cite
         "P. Giannozzi et al., J. Phys.:Condens. Matter 21 395502 (2009);
         "P. Giannozzi et al., J. Phys.:Condens. Matter 29 465901 (2017);
         "P. Giannozzi et al., J. Chem. Phys. 152 154105 (2020);
          URL http://www.quantum-espresso.org", 
     in publications or presentations arising from this work. More details at
     http://www.quantum-espresso.org/quote

     Parallel version (MPI), running on    28 processors

     MPI processes distributed on     2 nodes
     K-points division:     npool     =       2
     R & G space division:  proc/nbgrp/npool/nimage =      14
     56809 MiB available memory on the printing compute node when the environment starts
 
     Reading input from in_files/si_ph_bench_nk_2_n_procs_28_4.ph
      Title line not specified: using 'default'.

     Reading xml data from directory:

     /fastscratch/tsievers/QE_TMP_DIR/si_ph_bench_nk_2_n_procs_28_4.save/

     IMPORTANT: XC functional enforced from input :
     Exchange-correlation= PW
                           (   1   4   0   0   0   0   0)
     Any further DFT definition will be discarded
     Please, verify this is what you really want

 
     Parallelization info
     --------------------
     sticks:   dense  smooth     PW     G-vecs:    dense   smooth      PW
     Min          71      71     21                 1489     1489     247
     Max          72      72     22                 1492     1492     250
     Sum        1003    1003    301                20875    20875    3479
 
     Using Slab Decomposition
 
     Reading collected, re-writing distributed wavefunctions


     Dynamical matrices for ( 6, 6, 6)  uniform grid of q-points
     (  16 q-points):
       N         xq(1)         xq(2)         xq(3) 
       1   0.000000000   0.000000000   0.000000000
       2  -0.166666667   0.166666667  -0.166666667
       3  -0.333333333   0.333333333  -0.333333333
       4   0.500000000  -0.500000000   0.500000000
       5   0.000000000   0.333333333   0.000000000
       6  -0.166666667   0.500000000  -0.166666667
       7   0.666666667  -0.333333333   0.666666667
       8   0.500000000  -0.166666667   0.500000000
       9   0.333333333   0.000000000   0.333333333
      10   0.000000000   0.666666667   0.000000000
      11   0.833333333  -0.166666667   0.833333333
      12   0.666666667  -0.000000000   0.666666667
      13   0.000000000  -1.000000000   0.000000000
      14   0.666666667  -0.333333333   1.000000000
      15   0.500000000  -0.166666667   0.833333333
      16  -0.333333333  -1.000000000   0.000000000

     Calculation of q =    0.0000000   0.0000000   0.0000000

     default                                                                    

     bravais-lattice index     =            2
     lattice parameter (alat)  =      10.1899  a.u.
     unit-cell volume          =     264.5151 (a.u.)^3
     number of atoms/cell      =            2
     number of atomic types    =            1
     kinetic-energy cut-off    =      70.0000  Ry
     charge density cut-off    =     280.0000  Ry
     convergence threshold     =      1.0E-15
     beta                      =       0.7000
     number of iterations used =            4
     Exchange-correlation= PW
                           (   1   4   0   0   0   0   0)


     celldm(1)=   10.18990  celldm(2)=    0.00000  celldm(3)=    0.00000
     celldm(4)=    0.00000  celldm(5)=    0.00000  celldm(6)=    0.00000

     crystal axes: (cart. coord. in units of alat)
               a(1) = ( -0.5000  0.0000  0.5000 )  
               a(2) = (  0.0000  0.5000  0.5000 )  
               a(3) = ( -0.5000  0.5000  0.0000 )  

     reciprocal axes: (cart. coord. in units 2 pi/alat)
               b(1) = ( -1.0000 -1.0000  1.0000 )  
               b(2) = (  1.0000  1.0000  1.0000 )  
               b(3) = ( -1.0000  1.0000 -1.0000 )  


     Atoms inside the unit cell: 

     Cartesian axes

     site n.  atom      mass           positions (alat units)
        1     Si  28.0855   tau(    1) = (    0.00000    0.00000    0.00000  )
        2     Si  28.0855   tau(    2) = (   -0.25000    0.25000    0.25000  )

     Computing dynamical matrix for 
                    q = (   0.0000000   0.0000000   0.0000000 )
 
     49 Sym.Ops. (with q -> -q+G )


     G cutoff =  736.4420  (   1492 G-vectors)     FFT grid: ( 40, 40, 40)
     number of k points=    28

     PseudoPot. # 1 for Si read from file:
     ./pseudos/Si.nc.UPF
     MD5 check sum: 9e2d726316af3d4752eea8ab0afbb951
     Pseudo is Norm-conserving + core correction, Zval =  4.0
     Generated using ONCVPSP code by D. R. Hamann
     Using radial grid of 1510 points,  6 beta functions with: 
                l(1) =   0
                l(2) =   0
                l(3) =   1
                l(4) =   1
                l(5) =   2
                l(6) =   2

     Mode symmetry, O_h (m-3m)  point group:


     Electric field:
     Dielectric constant
     Born effective charges in two ways 


     Atomic displacements:
     There are    2 irreducible representations

     Representation     1      3 modes -  To be done

     Representation     2      3 modes -  To be done



     Alpha used in Ewald sum =   2.8000
     PHONON       :     19.98s CPU     20.28s WALL


     Electric Fields Calculation

      iter #   1 total cpu time :    82.5 secs   av.it.:   6.5
      thresh= 1.000E-02 alpha_mix =  0.700 |ddv_scf|^2 =  1.044E-07

      iter #   2 total cpu time :    96.4 secs   av.it.:  11.7
      thresh= 3.230E-05 alpha_mix =  0.700 |ddv_scf|^2 =  4.473E-09

      iter #   3 total cpu time :   113.5 secs   av.it.:  11.6
      thresh= 6.688E-06 alpha_mix =  0.700 |ddv_scf|^2 =  5.041E-11

      iter #   4 total cpu time :   123.3 secs   av.it.:  11.9
      thresh= 7.100E-07 alpha_mix =  0.700 |ddv_scf|^2 =  2.990E-13

      iter #   5 total cpu time :   140.2 secs   av.it.:  10.9
      thresh= 5.468E-08 alpha_mix =  0.700 |ddv_scf|^2 =  1.097E-16

     End of electric fields calculation

          Dielectric constant in cartesian axis 

          (      13.312106366      -0.000000000       0.000000000 )
          (      -0.000000000      13.312106366      -0.000000000 )
          (       0.000000000      -0.000000000      13.312106366 )

          Effective charges (d Force / dE) in cartesian axis without acoustic sum rule applied (asr)

           atom      1   Si Mean Z*:       -0.00677
      Ex  (       -0.00677        0.00000        0.00000 )
      Ey  (        0.00000       -0.00677        0.00000 )
      Ez  (        0.00000        0.00000       -0.00677 )
           atom      2   Si Mean Z*:       -0.00677
      Ex  (       -0.00677        0.00000        0.00000 )
      Ey  (        0.00000       -0.00677        0.00000 )
      Ez  (        0.00000       -0.00000       -0.00677 )

          Effective charges Sum: Mean:       -0.01354
             -0.01354        0.00000        0.00000
              0.00000       -0.01354        0.00000
              0.00000        0.00000       -0.01354

          Effective charges (d Force / dE) in cartesian axis with asr applied: 
           atom      1   Si Mean Z*:       -0.00000
      E*x (        0.00000       -0.00000       -0.00000 )
      E*y (       -0.00000       -0.00000        0.00000 )
      E*z (        0.00000        0.00000        0.00000 )
           atom      2   Si Mean Z*:        0.00000
      E*x (        0.00000        0.00000        0.00000 )
      E*y (        0.00000        0.00000       -0.00000 )
      E*z (       -0.00000       -0.00000        0.00000 )


     Representation #   1 modes #   1   2   3

     Self-consistent Calculation

      iter #   1 total cpu time :   155.0 secs   av.it.:   5.8
      thresh= 1.000E-02 alpha_mix =  0.700 |ddv_scf|^2 =  1.504E-08

      iter #   2 total cpu time :   172.9 secs   av.it.:  11.7
      thresh= 1.227E-05 alpha_mix =  0.700 |ddv_scf|^2 =  3.381E-10

      iter #   3 total cpu time :   184.7 secs   av.it.:  11.7
      thresh= 1.839E-06 alpha_mix =  0.700 |ddv_scf|^2 =  1.262E-11

      iter #   4 total cpu time :   203.1 secs   av.it.:  11.5
      thresh= 3.552E-07 alpha_mix =  0.700 |ddv_scf|^2 =  4.086E-14

      iter #   5 total cpu time :   225.5 secs   av.it.:  11.8
      thresh= 2.021E-08 alpha_mix =  0.700 |ddv_scf|^2 =  1.897E-16

     End of self-consistent calculation

     Convergence has been achieved 


     Representation #   2 modes #   4   5   6

     Self-consistent Calculation

      iter #   1 total cpu time :   241.1 secs   av.it.:   6.0
      thresh= 1.000E-02 alpha_mix =  0.700 |ddv_scf|^2 =  1.086E-08

      iter #   2 total cpu time :   255.5 secs   av.it.:  11.9
      thresh= 1.042E-05 alpha_mix =  0.700 |ddv_scf|^2 =  3.906E-10

      iter #   3 total cpu time :   273.1 secs   av.it.:  11.8
      thresh= 1.976E-06 alpha_mix =  0.700 |ddv_scf|^2 =  1.778E-11

      iter #   4 total cpu time :   290.4 secs   av.it.:  11.8
      thresh= 4.216E-07 alpha_mix =  0.700 |ddv_scf|^2 =  3.182E-14

      iter #   5 total cpu time :   306.8 secs   av.it.:  11.9
      thresh= 1.784E-08 alpha_mix =  0.700 |ddv_scf|^2 =  8.454E-17

     End of self-consistent calculation

     Convergence has been achieved 
 
     Number of q in the star =    1
     List of q in the star:
          1   0.000000000   0.000000000   0.000000000

          Dielectric constant in cartesian axis 

          (      13.312106366      -0.000000000       0.000000000 )
          (      -0.000000000      13.312106366      -0.000000000 )
          (       0.000000000      -0.000000000      13.312106366 )

          Effective charges (d Force / dE) in cartesian axis without acoustic sum rule applied (asr)

           atom      1   Si Mean Z*:       -0.00677
      Ex  (       -0.00677        0.00000        0.00000 )
      Ey  (        0.00000       -0.00677        0.00000 )
      Ez  (        0.00000        0.00000       -0.00677 )
           atom      2   Si Mean Z*:       -0.00677
      Ex  (       -0.00677        0.00000        0.00000 )
      Ey  (        0.00000       -0.00677        0.00000 )
      Ez  (        0.00000       -0.00000       -0.00677 )

          Effective charges Sum: Mean:       -0.01354
             -0.01354        0.00000        0.00000
              0.00000       -0.01354        0.00000
              0.00000        0.00000       -0.01354

          Effective charges (d Force / dE) in cartesian axis with asr applied: 
           atom      1   Si Mean Z*:       -0.00000
      E*x (        0.00000       -0.00000       -0.00000 )
      E*y (       -0.00000       -0.00000        0.00000 )
      E*z (        0.00000        0.00000        0.00000 )
           atom      2   Si Mean Z*:        0.00000
      E*x (        0.00000        0.00000        0.00000 )
      E*y (        0.00000        0.00000       -0.00000 )
      E*z (       -0.00000       -0.00000        0.00000 )

          Effective charges (d P / du) in cartesian axis 

           atom      1   Si 
      Px  (       -0.00684        0.00000        0.00000 )
      Py  (        0.00000       -0.00684        0.00000 )
      Pz  (        0.00000       -0.00000       -0.00684 )
           atom      2   Si 
      Px  (       -0.00684       -0.00000        0.00000 )
      Py  (       -0.00000       -0.00684       -0.00000 )
      Pz  (        0.00000       -0.00000       -0.00684 )

     Diagonalizing the dynamical matrix

     q = (    0.000000000   0.000000000   0.000000000 ) 

 **************************************************************************
     freq (    1) =      -0.112454 [THz] =      -3.751070 [cm-1]
     freq (    2) =      -0.112454 [THz] =      -3.751070 [cm-1]
     freq (    3) =      -0.112454 [THz] =      -3.751070 [cm-1]
     freq (    4) =      15.412113 [THz] =     514.092745 [cm-1]
     freq (    5) =      15.412113 [THz] =     514.092745 [cm-1]
     freq (    6) =      15.412113 [THz] =     514.092745 [cm-1]
 **************************************************************************

     Mode symmetry, O_h (m-3m)  point group:

     freq (   1-   3) =         -3.8  [cm-1]   --> T_1u G_15  G_4- I  
     freq (   4-   6) =        514.1  [cm-1]   --> T_2g G_25' G_5+ R  

     Calculation of q =   -0.1666667   0.1666667  -0.1666667

     Subspace diagonalization in iterative solution of the eigenvalue problem:
     one sub-group per band group will be used
     scalapack distributed-memory algorithm (size of sub-group:  3*  3 procs)

 
     Parallelization info
     --------------------
     sticks:   dense  smooth     PW     G-vecs:    dense   smooth      PW
     Min          71      71     22                 1489     1489     262
     Max          72      72     23                 1492     1492     265
     Sum        1003    1003    313                20875    20875    3695
 
     Using Slab Decomposition
 

     Title: 
     default                                                                    


     bravais-lattice index     =            2
     lattice parameter (alat)  =      10.1899  a.u.
     unit-cell volume          =     264.5151 (a.u.)^3
     number of atoms/cell      =            2
     number of atomic types    =            1
     number of electrons       =         8.00
     number of Kohn-Sham states=            4
     kinetic-energy cutoff     =      70.0000  Ry
     charge density cutoff     =     280.0000  Ry
     Exchange-correlation= PW
                           (   1   4   0   0   0   0   0)

     celldm(1)=  10.189905  celldm(2)=   0.000000  celldm(3)=   0.000000
     celldm(4)=   0.000000  celldm(5)=   0.000000  celldm(6)=   0.000000

     crystal axes: (cart. coord. in units of alat)
               a(1) = (  -0.500000   0.000000   0.500000 )  
               a(2) = (   0.000000   0.500000   0.500000 )  
               a(3) = (  -0.500000   0.500000   0.000000 )  

     reciprocal axes: (cart. coord. in units 2 pi/alat)
               b(1) = ( -1.000000 -1.000000  1.000000 )  
               b(2) = (  1.000000  1.000000  1.000000 )  
               b(3) = ( -1.000000  1.000000 -1.000000 )  


     PseudoPot. # 1 for Si read from file:
     ./pseudos/Si.nc.UPF
     MD5 check sum: 9e2d726316af3d4752eea8ab0afbb951
     Pseudo is Norm-conserving + core correction, Zval =  4.0
     Generated using ONCVPSP code by D. R. Hamann
     Using radial grid of 1510 points,  6 beta functions with: 
                l(1) =   0
                l(2) =   0
                l(3) =   1
                l(4) =   1
                l(5) =   2
                l(6) =   2

     atomic species   valence    mass     pseudopotential
        Si             4.00    28.08550     Si( 1.00)

     48 Sym. Ops., with inversion, found



   Cartesian axes

     site n.     atom                  positions (alat units)
         1           Si  tau(   1) = (   0.0000000   0.0000000   0.0000000  )
         2           Si  tau(   2) = (  -0.2500000   0.2500000   0.2500000  )

     number of k points=   364

     Number of k-points >= 100: set verbosity='high' to print them.

     Dense  grid:    20875 G-vectors     FFT dimensions: (  40,  40,  40)

     Estimated max dynamical RAM per process >       2.09 MB

     Estimated total dynamical RAM >      58.62 MB

     The potential is recalculated from file :
     /fastscratch/tsievers/QE_TMP_DIR/_ph0/si_ph_bench_nk_2_n_procs_28_4.save/charge-density

     Starting wfcs are    8 atomic wfcs

     Band Structure Calculation
     Davidson diagonalization with overlap

     ethr =  1.25E-10,  avg # of iterations = 12.9

     total cpu time spent up to now is      199.2 secs

     End of band structure calculation

     Number of k-points >= 100: set verbosity='high' to print the bands.

     highest occupied level (ev):     6.1106

     Writing config to output data dir /fastscratch/tsievers/QE_TMP_DIR/_ph0/si_ph_bench_nk_2_n_procs_28_4.save/

     default                                                                    

     bravais-lattice index     =            2
     lattice parameter (alat)  =      10.1899  a.u.
     unit-cell volume          =     264.5151 (a.u.)^3
     number of atoms/cell      =            2
     number of atomic types    =            1
     kinetic-energy cut-off    =      70.0000  Ry
     charge density cut-off    =     280.0000  Ry
     convergence threshold     =      1.0E-15
     beta                      =       0.7000
     number of iterations used =            4
     Exchange-correlation= PW
                           (   1   4   0   0   0   0   0)


     celldm(1)=   10.18990  celldm(2)=    0.00000  celldm(3)=    0.00000
     celldm(4)=    0.00000  celldm(5)=    0.00000  celldm(6)=    0.00000

     crystal axes: (cart. coord. in units of alat)
               a(1) = ( -0.5000  0.0000  0.5000 )  
               a(2) = (  0.0000  0.5000  0.5000 )  
               a(3) = ( -0.5000  0.5000  0.0000 )  

     reciprocal axes: (cart. coord. in units 2 pi/alat)
               b(1) = ( -1.0000 -1.0000  1.0000 )  
               b(2) = (  1.0000  1.0000  1.0000 )  
               b(3) = ( -1.0000  1.0000 -1.0000 )  


     Atoms inside the unit cell: 

     Cartesian axes

     site n.  atom      mass           positions (alat units)
        1     Si  28.0855   tau(    1) = (    0.00000    0.00000    0.00000  )
        2     Si  28.0855   tau(    2) = (   -0.25000    0.25000    0.25000  )

     Computing dynamical matrix for 
                    q = (  -0.1666667   0.1666667  -0.1666667 )
 
      6 Sym.Ops. (no q -> -q+G )


     G cutoff =  736.4420  (   1492 G-vectors)     FFT grid: ( 40, 40, 40)
     number of k points=   364

     PseudoPot. # 1 for Si read from file:
     ./pseudos/Si.nc.UPF
     MD5 check sum: 9e2d726316af3d4752eea8ab0afbb951
     Pseudo is Norm-conserving + core correction, Zval =  4.0
     Generated using ONCVPSP code by D. R. Hamann
     Using radial grid of 1510 points,  6 beta functions with: 
                l(1) =   0
                l(2) =   0
                l(3) =   1
                l(4) =   1
                l(5) =   2
                l(6) =   2

     Mode symmetry, C_3v (3m)   point group:


     Atomic displacements:
     There are    4 irreducible representations

     Representation     1      1 modes -  To be done

     Representation     2      1 modes -  To be done

     Representation     3      2 modes -  To be done

     Representation     4      2 modes -  To be done



     Alpha used in Ewald sum =   2.8000
     PHONON       :   8m21.44s CPU   8m31.92s WALL



     Representation #   1 mode #   1

     Self-consistent Calculation

      iter #   1 total cpu time :   533.0 secs   av.it.:   6.6
      thresh= 1.000E-02 alpha_mix =  0.700 |ddv_scf|^2 =  1.408E-03

      iter #   2 total cpu time :   569.4 secs   av.it.:   8.9
      thresh= 3.752E-03 alpha_mix =  0.700 |ddv_scf|^2 =  4.612E-02

      iter #   3 total cpu time :   598.2 secs   av.it.:   7.6
      thresh= 1.000E-02 alpha_mix =  0.700 |ddv_scf|^2 =  3.757E-07

      iter #   4 total cpu time :   627.6 secs   av.it.:   9.1
      thresh= 6.129E-05 alpha_mix =  0.700 |ddv_scf|^2 =  1.230E-08

      iter #   5 total cpu time :   676.8 secs   av.it.:   9.5
      thresh= 1.109E-05 alpha_mix =  0.700 |ddv_scf|^2 =  7.844E-10

      iter #   6 total cpu time :   707.7 secs   av.it.:   8.4
      thresh= 2.801E-06 alpha_mix =  0.700 |ddv_scf|^2 =  1.467E-09

      iter #   7 total cpu time :   739.6 secs   av.it.:   8.0
      thresh= 3.830E-06 alpha_mix =  0.700 |ddv_scf|^2 =  8.491E-11

      iter #   8 total cpu time :   773.4 secs   av.it.:   8.4
      thresh= 9.215E-07 alpha_mix =  0.700 |ddv_scf|^2 =  6.727E-13

      iter #   9 total cpu time :   801.1 secs   av.it.:   8.2
      thresh= 8.202E-08 alpha_mix =  0.700 |ddv_scf|^2 =  1.526E-14

      iter #  10 total cpu time :   833.5 secs   av.it.:   8.5
      thresh= 1.235E-08 alpha_mix =  0.700 |ddv_scf|^2 =  1.386E-15

      iter #  11 total cpu time :   866.9 secs   av.it.:   9.1
      thresh= 3.723E-09 alpha_mix =  0.700 |ddv_scf|^2 =  2.074E-16

     End of self-consistent calculation

     Convergence has been achieved 


     Representation #   2 mode #   2

     Self-consistent Calculation

      iter #   1 total cpu time :   888.8 secs   av.it.:   6.6
      thresh= 1.000E-02 alpha_mix =  0.700 |ddv_scf|^2 =  1.408E-03

      iter #   2 total cpu time :   913.2 secs   av.it.:   8.9
      thresh= 3.752E-03 alpha_mix =  0.700 |ddv_scf|^2 =  4.612E-02

      iter #   3 total cpu time :   942.0 secs   av.it.:   7.6
      thresh= 1.000E-02 alpha_mix =  0.700 |ddv_scf|^2 =  3.757E-07

      iter #   4 total cpu time :   969.3 secs   av.it.:   9.1
      thresh= 6.129E-05 alpha_mix =  0.700 |ddv_scf|^2 =  1.230E-08

      iter #   5 total cpu time :  1003.1 secs   av.it.:   9.5
      thresh= 1.109E-05 alpha_mix =  0.700 |ddv_scf|^2 =  7.844E-10

      iter #   6 total cpu time :  1038.4 secs   av.it.:   8.4
      thresh= 2.801E-06 alpha_mix =  0.700 |ddv_scf|^2 =  1.467E-09

      iter #   7 total cpu time :  1065.5 secs   av.it.:   8.0
      thresh= 3.830E-06 alpha_mix =  0.700 |ddv_scf|^2 =  8.491E-11

      iter #   8 total cpu time :  1094.2 secs   av.it.:   8.4
      thresh= 9.215E-07 alpha_mix =  0.700 |ddv_scf|^2 =  6.726E-13

      iter #   9 total cpu time :  1122.8 secs   av.it.:   8.2
      thresh= 8.202E-08 alpha_mix =  0.700 |ddv_scf|^2 =  1.526E-14

      iter #  10 total cpu time :  1136.8 secs   av.it.:   8.5
      thresh= 1.235E-08 alpha_mix =  0.700 |ddv_scf|^2 =  1.386E-15

      iter #  11 total cpu time :  1159.4 secs   av.it.:   9.1
      thresh= 3.723E-09 alpha_mix =  0.700 |ddv_scf|^2 =  2.073E-16

     End of self-consistent calculation

     Convergence has been achieved 


     Representation #   3 modes #   3   4

     Self-consistent Calculation

      iter #   1 total cpu time :  1211.9 secs   av.it.:   6.1
      thresh= 1.000E-02 alpha_mix =  0.700 |ddv_scf|^2 =  3.672E-08

      iter #   2 total cpu time :  1302.8 secs   av.it.:  11.4
      thresh= 1.916E-05 alpha_mix =  0.700 |ddv_scf|^2 =  1.634E-09

      iter #   3 total cpu time :  1366.2 secs   av.it.:  11.3
      thresh= 4.042E-06 alpha_mix =  0.700 |ddv_scf|^2 =  4.267E-11

      iter #   4 total cpu time :  1432.3 secs   av.it.:  11.4
      thresh= 6.532E-07 alpha_mix =  0.700 |ddv_scf|^2 =  4.923E-13

      iter #   5 total cpu time :  1503.2 secs   av.it.:  11.4
      thresh= 7.016E-08 alpha_mix =  0.700 |ddv_scf|^2 =  1.045E-14

      iter #   6 total cpu time :  1567.4 secs   av.it.:  11.6
      thresh= 1.022E-08 alpha_mix =  0.700 |ddv_scf|^2 =  4.746E-17

     End of self-consistent calculation

     Convergence has been achieved 


     Representation #   4 modes #   5   6

     Self-consistent Calculation

      iter #   1 total cpu time :  1620.5 secs   av.it.:   6.0
      thresh= 1.000E-02 alpha_mix =  0.700 |ddv_scf|^2 =  3.672E-08

      iter #   2 total cpu time :  1670.5 secs   av.it.:  11.4
      thresh= 1.916E-05 alpha_mix =  0.700 |ddv_scf|^2 =  1.634E-09

      iter #   3 total cpu time :  1729.3 secs   av.it.:  11.3
      thresh= 4.043E-06 alpha_mix =  0.700 |ddv_scf|^2 =  4.267E-11

      iter #   4 total cpu time :  1795.0 secs   av.it.:  11.3
      thresh= 6.532E-07 alpha_mix =  0.700 |ddv_scf|^2 =  4.925E-13

      iter #   5 total cpu time :  1905.4 secs   av.it.:  11.3
      thresh= 7.018E-08 alpha_mix =  0.700 |ddv_scf|^2 =  1.046E-14

      iter #   6 total cpu time :  1969.6 secs   av.it.:  11.6
      thresh= 1.023E-08 alpha_mix =  0.700 |ddv_scf|^2 =  4.742E-17

     End of self-consistent calculation

     Convergence has been achieved 
 
     Number of q in the star =    8
     List of q in the star:
          1  -0.166666667   0.166666667  -0.166666667
          2   0.166666667   0.166666667   0.166666667
          3  -0.166666667  -0.166666667  -0.166666667
          4   0.166666667  -0.166666667   0.166666667
          5   0.166666667  -0.166666667  -0.166666667
          6   0.166666667   0.166666667  -0.166666667
          7  -0.166666667  -0.166666667   0.166666667
          8  -0.166666667   0.166666667   0.166666667

     Diagonalizing the dynamical matrix

     q = (   -0.166666667   0.166666667  -0.166666667 ) 

 **************************************************************************
     freq (    1) =       2.202621 [THz] =      73.471525 [cm-1]
     freq (    2) =       2.202621 [THz] =      73.471525 [cm-1]
     freq (    3) =       4.748020 [THz] =     158.376913 [cm-1]
     freq (    4) =      15.023886 [THz] =     501.142889 [cm-1]
     freq (    5) =      15.065869 [THz] =     502.543297 [cm-1]
     freq (    6) =      15.065869 [THz] =     502.543297 [cm-1]
 **************************************************************************

     Mode symmetry, C_3v (3m)   point group:

     freq (   1-   2) =         73.5  [cm-1]   --> E    L_3           
     freq (   3-   3) =        158.4  [cm-1]   --> A_1  L_1           
     freq (   4-   4) =        501.1  [cm-1]   --> A_1  L_1           
     freq (   5-   6) =        502.5  [cm-1]   --> E    L_3           

     Calculation of q =   -0.3333333   0.3333333  -0.3333333
 
     Parallelization info
     --------------------
     sticks:   dense  smooth     PW     G-vecs:    dense   smooth      PW
     Min          71      71     22                 1489     1489     272
     Max          72      72     23                 1492     1492     277
     Sum        1003    1003    313                20875    20875    3839
 
     Using Slab Decomposition
 

     Title: 
     default                                                                    


     bravais-lattice index     =            2
     lattice parameter (alat)  =      10.1899  a.u.
     unit-cell volume          =     264.5151 (a.u.)^3
     number of atoms/cell      =            2
     number of atomic types    =            1
     number of electrons       =         8.00
     number of Kohn-Sham states=            4
     kinetic-energy cutoff     =      70.0000  Ry
     charge density cutoff     =     280.0000  Ry
     Exchange-correlation= PW
                           (   1   4   0   0   0   0   0)

     celldm(1)=  10.189905  celldm(2)=   0.000000  celldm(3)=   0.000000
     celldm(4)=   0.000000  celldm(5)=   0.000000  celldm(6)=   0.000000

     crystal axes: (cart. coord. in units of alat)
               a(1) = (  -0.500000   0.000000   0.500000 )  
               a(2) = (   0.000000   0.500000   0.500000 )  
               a(3) = (  -0.500000   0.500000   0.000000 )  

     reciprocal axes: (cart. coord. in units 2 pi/alat)
               b(1) = ( -1.000000 -1.000000  1.000000 )  
               b(2) = (  1.000000  1.000000  1.000000 )  
               b(3) = ( -1.000000  1.000000 -1.000000 )  


     PseudoPot. # 1 for Si read from file:
     ./pseudos/Si.nc.UPF
     MD5 check sum: 9e2d726316af3d4752eea8ab0afbb951
     Pseudo is Norm-conserving + core correction, Zval =  4.0
     Generated using ONCVPSP code by D. R. Hamann
     Using radial grid of 1510 points,  6 beta functions with: 
                l(1) =   0
                l(2) =   0
                l(3) =   1
                l(4) =   1
                l(5) =   2
                l(6) =   2

     atomic species   valence    mass     pseudopotential
        Si             4.00    28.08550     Si( 1.00)

     48 Sym. Ops., with inversion, found



   Cartesian axes

     site n.     atom                  positions (alat units)
         1           Si  tau(   1) = (   0.0000000   0.0000000   0.0000000  )
         2           Si  tau(   2) = (  -0.2500000   0.2500000   0.2500000  )

     number of k points=   364

     Number of k-points >= 100: set verbosity='high' to print them.

     Dense  grid:    20875 G-vectors     FFT dimensions: (  40,  40,  40)

     Estimated max dynamical RAM per process >       2.11 MB

     Estimated total dynamical RAM >      59.00 MB

     The potential is recalculated from file :
     /fastscratch/tsievers/QE_TMP_DIR/_ph0/si_ph_bench_nk_2_n_procs_28_4.save/charge-density

     Starting wfcs are    8 atomic wfcs

     Band Structure Calculation
     Davidson diagonalization with overlap

     ethr =  1.25E-10,  avg # of iterations = 12.9

     total cpu time spent up to now is      398.4 secs

     End of band structure calculation

     Number of k-points >= 100: set verbosity='high' to print the bands.

     highest occupied level (ev):     6.1106

     Writing config to output data dir /fastscratch/tsievers/QE_TMP_DIR/_ph0/si_ph_bench_nk_2_n_procs_28_4.save/

     default                                                                    

     bravais-lattice index     =            2
     lattice parameter (alat)  =      10.1899  a.u.
     unit-cell volume          =     264.5151 (a.u.)^3
     number of atoms/cell      =            2
     number of atomic types    =            1
     kinetic-energy cut-off    =      70.0000  Ry
     charge density cut-off    =     280.0000  Ry
     convergence threshold     =      1.0E-15
     beta                      =       0.7000
     number of iterations used =            4
     Exchange-correlation= PW
                           (   1   4   0   0   0   0   0)


     celldm(1)=   10.18990  celldm(2)=    0.00000  celldm(3)=    0.00000
     celldm(4)=    0.00000  celldm(5)=    0.00000  celldm(6)=    0.00000

     crystal axes: (cart. coord. in units of alat)
               a(1) = ( -0.5000  0.0000  0.5000 )  
               a(2) = (  0.0000  0.5000  0.5000 )  
               a(3) = ( -0.5000  0.5000  0.0000 )  

     reciprocal axes: (cart. coord. in units 2 pi/alat)
               b(1) = ( -1.0000 -1.0000  1.0000 )  
               b(2) = (  1.0000  1.0000  1.0000 )  
               b(3) = ( -1.0000  1.0000 -1.0000 )  


     Atoms inside the unit cell: 

     Cartesian axes

     site n.  atom      mass           positions (alat units)
        1     Si  28.0855   tau(    1) = (    0.00000    0.00000    0.00000  )
        2     Si  28.0855   tau(    2) = (   -0.25000    0.25000    0.25000  )

     Computing dynamical matrix for 
                    q = (  -0.3333333   0.3333333  -0.3333333 )
 
      6 Sym.Ops. (no q -> -q+G )


     G cutoff =  736.4420  (   1492 G-vectors)     FFT grid: ( 40, 40, 40)
     number of k points=   364

     PseudoPot. # 1 for Si read from file:
     ./pseudos/Si.nc.UPF
     MD5 check sum: 9e2d726316af3d4752eea8ab0afbb951
     Pseudo is Norm-conserving + core correction, Zval =  4.0
     Generated using ONCVPSP code by D. R. Hamann
     Using radial grid of 1510 points,  6 beta functions with: 
                l(1) =   0
                l(2) =   0
                l(3) =   1
                l(4) =   1
                l(5) =   2
                l(6) =   2

     Mode symmetry, C_3v (3m)   point group:


     Atomic displacements:
     There are    4 irreducible representations

     Representation     1      1 modes -  To be done

     Representation     2      1 modes -  To be done

     Representation     3      2 modes -  To be done

     Representation     4      2 modes -  To be done



     Alpha used in Ewald sum =   2.8000
     PHONON       :  35m51.00s CPU  36m12.58s WALL



     Representation #   1 mode #   1

     Self-consistent Calculation

      iter #   1 total cpu time :  2189.2 secs   av.it.:   6.5
      thresh= 1.000E-02 alpha_mix =  0.700 |ddv_scf|^2 =  8.913E-05

      iter #   2 total cpu time :  2216.1 secs   av.it.:   9.7
      thresh= 9.441E-04 alpha_mix =  0.700 |ddv_scf|^2 =  7.113E-04

      iter #   3 total cpu time :  2246.7 secs   av.it.:   8.3
      thresh= 2.667E-03 alpha_mix =  0.700 |ddv_scf|^2 =  1.309E-07

      iter #   4 total cpu time :  2277.1 secs   av.it.:   9.9
      thresh= 3.618E-05 alpha_mix =  0.700 |ddv_scf|^2 =  2.660E-09

      iter #   5 total cpu time :  2308.1 secs   av.it.:   9.9
      thresh= 5.157E-06 alpha_mix =  0.700 |ddv_scf|^2 =  2.820E-11

      iter #   6 total cpu time :  2326.2 secs   av.it.:  10.5
      thresh= 5.311E-07 alpha_mix =  0.700 |ddv_scf|^2 =  2.912E-12

      iter #   7 total cpu time :  2360.7 secs   av.it.:  10.3
      thresh= 1.707E-07 alpha_mix =  0.700 |ddv_scf|^2 =  2.234E-12

      iter #   8 total cpu time :  2392.8 secs   av.it.:   9.4
      thresh= 1.495E-07 alpha_mix =  0.700 |ddv_scf|^2 =  2.233E-12

      iter #   9 total cpu time :  2415.2 secs   av.it.:   9.0
      thresh= 1.494E-07 alpha_mix =  0.700 |ddv_scf|^2 =  2.929E-13

      iter #  10 total cpu time :  2457.7 secs   av.it.:   9.0
      thresh= 5.412E-08 alpha_mix =  0.700 |ddv_scf|^2 =  1.826E-15

      iter #  11 total cpu time :  2493.2 secs   av.it.:   9.7
      thresh= 4.273E-09 alpha_mix =  0.700 |ddv_scf|^2 =  1.699E-16

     End of self-consistent calculation

     Convergence has been achieved 


     Representation #   2 mode #   2

     Self-consistent Calculation

      iter #   1 total cpu time :  2522.0 secs   av.it.:   6.5
      thresh= 1.000E-02 alpha_mix =  0.700 |ddv_scf|^2 =  8.913E-05

      iter #   2 total cpu time :  2561.6 secs   av.it.:   9.7
      thresh= 9.441E-04 alpha_mix =  0.700 |ddv_scf|^2 =  7.113E-04

      iter #   3 total cpu time :  2592.0 secs   av.it.:   8.3
      thresh= 2.667E-03 alpha_mix =  0.700 |ddv_scf|^2 =  1.309E-07

      iter #   4 total cpu time :  2617.2 secs   av.it.:   9.9
      thresh= 3.618E-05 alpha_mix =  0.700 |ddv_scf|^2 =  2.660E-09

      iter #   5 total cpu time :  2645.2 secs   av.it.:   9.9
      thresh= 5.157E-06 alpha_mix =  0.700 |ddv_scf|^2 =  2.820E-11

      iter #   6 total cpu time :  2677.0 secs   av.it.:  10.5
      thresh= 5.311E-07 alpha_mix =  0.700 |ddv_scf|^2 =  2.911E-12

      iter #   7 total cpu time :  2721.4 secs   av.it.:  10.3
      thresh= 1.706E-07 alpha_mix =  0.700 |ddv_scf|^2 =  2.227E-12

      iter #   8 total cpu time :  2752.1 secs   av.it.:   9.4
      thresh= 1.492E-07 alpha_mix =  0.700 |ddv_scf|^2 =  2.232E-12

      iter #   9 total cpu time :  2776.8 secs   av.it.:   9.0
      thresh= 1.494E-07 alpha_mix =  0.700 |ddv_scf|^2 =  2.926E-13

      iter #  10 total cpu time :  2811.3 secs   av.it.:   9.0
      thresh= 5.410E-08 alpha_mix =  0.700 |ddv_scf|^2 =  1.821E-15

      iter #  11 total cpu time :  2842.2 secs   av.it.:   9.7
      thresh= 4.267E-09 alpha_mix =  0.700 |ddv_scf|^2 =  1.695E-16

     End of self-consistent calculation

     Convergence has been achieved 


     Representation #   3 modes #   3   4

     Self-consistent Calculation

      iter #   1 total cpu time :  2884.0 secs   av.it.:   6.1
      thresh= 1.000E-02 alpha_mix =  0.700 |ddv_scf|^2 =  5.001E-08

      iter #   2 total cpu time :  2968.0 secs   av.it.:  11.4
      thresh= 2.236E-05 alpha_mix =  0.700 |ddv_scf|^2 =  3.464E-09

      iter #   3 total cpu time :  3048.2 secs   av.it.:  11.2
      thresh= 5.886E-06 alpha_mix =  0.700 |ddv_scf|^2 =  5.015E-11

      iter #   4 total cpu time :  3109.1 secs   av.it.:  11.4
      thresh= 7.082E-07 alpha_mix =  0.700 |ddv_scf|^2 =  5.030E-13

      iter #   5 total cpu time :  3193.1 secs   av.it.:  11.4
      thresh= 7.092E-08 alpha_mix =  0.700 |ddv_scf|^2 =  9.791E-15

      iter #   6 total cpu time :  3267.3 secs   av.it.:  11.6
      thresh= 9.895E-09 alpha_mix =  0.700 |ddv_scf|^2 =  6.674E-17

     End of self-consistent calculation

     Convergence has been achieved 


     Representation #   4 modes #   5   6

     Self-consistent Calculation

      iter #   1 total cpu time :  3291.4 secs   av.it.:   6.0
      thresh= 1.000E-02 alpha_mix =  0.700 |ddv_scf|^2 =  5.002E-08

      iter #   2 total cpu time :  3374.1 secs   av.it.:  11.4
      thresh= 2.237E-05 alpha_mix =  0.700 |ddv_scf|^2 =  3.469E-09

      iter #   3 total cpu time :  3448.5 secs   av.it.:  11.2
      thresh= 5.890E-06 alpha_mix =  0.700 |ddv_scf|^2 =  5.013E-11

      iter #   4 total cpu time :  3508.8 secs   av.it.:  11.3
      thresh= 7.080E-07 alpha_mix =  0.700 |ddv_scf|^2 =  5.028E-13

      iter #   5 total cpu time :  3579.1 secs   av.it.:  11.4
      thresh= 7.091E-08 alpha_mix =  0.700 |ddv_scf|^2 =  9.780E-15

      iter #   6 total cpu time :  3652.2 secs   av.it.:  11.5
      thresh= 9.889E-09 alpha_mix =  0.700 |ddv_scf|^2 =  6.667E-17

     End of self-consistent calculation

     Convergence has been achieved 
 
     Number of q in the star =    8
     List of q in the star:
          1  -0.333333333   0.333333333  -0.333333333
          2   0.333333333   0.333333333   0.333333333
          3  -0.333333333  -0.333333333  -0.333333333
          4   0.333333333  -0.333333333   0.333333333
          5   0.333333333  -0.333333333  -0.333333333
          6   0.333333333   0.333333333  -0.333333333
          7  -0.333333333  -0.333333333   0.333333333
          8  -0.333333333   0.333333333   0.333333333

     Diagonalizing the dynamical matrix

     q = (   -0.333333333   0.333333333  -0.333333333 ) 

 **************************************************************************
     freq (    1) =       3.044009 [THz] =     101.537212 [cm-1]
     freq (    2) =       3.044009 [THz] =     101.537212 [cm-1]
     freq (    3) =       8.747612 [THz] =     291.788936 [cm-1]
     freq (    4) =      13.856975 [THz] =     462.218943 [cm-1]
     freq (    5) =      14.763279 [THz] =     492.449995 [cm-1]
     freq (    6) =      14.763279 [THz] =     492.449995 [cm-1]
 **************************************************************************

     Mode symmetry, C_3v (3m)   point group:

     freq (   1-   2) =        101.5  [cm-1]   --> E    L_3           
     freq (   3-   3) =        291.8  [cm-1]   --> A_1  L_1           
     freq (   4-   4) =        462.2  [cm-1]   --> A_1  L_1           
     freq (   5-   6) =        492.4  [cm-1]   --> E    L_3           

     Calculation of q =    0.5000000  -0.5000000   0.5000000
 
     Parallelization info
     --------------------
     sticks:   dense  smooth     PW     G-vecs:    dense   smooth      PW
     Min          71      71     23                 1489     1489     286
     Max          72      72     25                 1492     1492     288
     Sum        1003    1003    337                20875    20875    4015
 
     Using Slab Decomposition
 

     Title: 
     default                                                                    


     bravais-lattice index     =            2
     lattice parameter (alat)  =      10.1899  a.u.
     unit-cell volume          =     264.5151 (a.u.)^3
     number of atoms/cell      =            2
     number of atomic types    =            1
     number of electrons       =         8.00
     number of Kohn-Sham states=            4
     kinetic-energy cutoff     =      70.0000  Ry
     charge density cutoff     =     280.0000  Ry
     Exchange-correlation= PW
                           (   1   4   0   0   0   0   0)

     celldm(1)=  10.189905  celldm(2)=   0.000000  celldm(3)=   0.000000
     celldm(4)=   0.000000  celldm(5)=   0.000000  celldm(6)=   0.000000

     crystal axes: (cart. coord. in units of alat)
               a(1) = (  -0.500000   0.000000   0.500000 )  
               a(2) = (   0.000000   0.500000   0.500000 )  
               a(3) = (  -0.500000   0.500000   0.000000 )  

     reciprocal axes: (cart. coord. in units 2 pi/alat)
               b(1) = ( -1.000000 -1.000000  1.000000 )  
               b(2) = (  1.000000  1.000000  1.000000 )  
               b(3) = ( -1.000000  1.000000 -1.000000 )  


     PseudoPot. # 1 for Si read from file:
     ./pseudos/Si.nc.UPF
     MD5 check sum: 9e2d726316af3d4752eea8ab0afbb951
     Pseudo is Norm-conserving + core correction, Zval =  4.0
     Generated using ONCVPSP code by D. R. Hamann
     Using radial grid of 1510 points,  6 beta functions with: 
                l(1) =   0
                l(2) =   0
                l(3) =   1
                l(4) =   1
                l(5) =   2
                l(6) =   2

     atomic species   valence    mass     pseudopotential
        Si             4.00    28.08550     Si( 1.00)

     48 Sym. Ops., with inversion, found



   Cartesian axes

     site n.     atom                  positions (alat units)
         1           Si  tau(   1) = (   0.0000000   0.0000000   0.0000000  )
         2           Si  tau(   2) = (  -0.2500000   0.2500000   0.2500000  )

     number of k points=   182

     Number of k-points >= 100: set verbosity='high' to print them.

     Dense  grid:    20875 G-vectors     FFT dimensions: (  40,  40,  40)

     Estimated max dynamical RAM per process >       2.12 MB

     Estimated total dynamical RAM >      59.41 MB

     The potential is recalculated from file :
     /fastscratch/tsievers/QE_TMP_DIR/_ph0/si_ph_bench_nk_2_n_procs_28_4.save/charge-density

     Starting wfcs are    8 atomic wfcs

     Band Structure Calculation
     Davidson diagonalization with overlap

     ethr =  1.25E-10,  avg # of iterations = 12.9

     total cpu time spent up to now is      499.6 secs

     End of band structure calculation

     Number of k-points >= 100: set verbosity='high' to print the bands.

     highest occupied level (ev):     6.1106

     Writing config to output data dir /fastscratch/tsievers/QE_TMP_DIR/_ph0/si_ph_bench_nk_2_n_procs_28_4.save/

     default                                                                    

     bravais-lattice index     =            2
     lattice parameter (alat)  =      10.1899  a.u.
     unit-cell volume          =     264.5151 (a.u.)^3
     number of atoms/cell      =            2
     number of atomic types    =            1
     kinetic-energy cut-off    =      70.0000  Ry
     charge density cut-off    =     280.0000  Ry
     convergence threshold     =      1.0E-15
     beta                      =       0.7000
     number of iterations used =            4
     Exchange-correlation= PW
                           (   1   4   0   0   0   0   0)


     celldm(1)=   10.18990  celldm(2)=    0.00000  celldm(3)=    0.00000
     celldm(4)=    0.00000  celldm(5)=    0.00000  celldm(6)=    0.00000

     crystal axes: (cart. coord. in units of alat)
               a(1) = ( -0.5000  0.0000  0.5000 )  
               a(2) = (  0.0000  0.5000  0.5000 )  
               a(3) = ( -0.5000  0.5000  0.0000 )  

     reciprocal axes: (cart. coord. in units 2 pi/alat)
               b(1) = ( -1.0000 -1.0000  1.0000 )  
               b(2) = (  1.0000  1.0000  1.0000 )  
               b(3) = ( -1.0000  1.0000 -1.0000 )  


     Atoms inside the unit cell: 

     Cartesian axes

     site n.  atom      mass           positions (alat units)
        1     Si  28.0855   tau(    1) = (    0.00000    0.00000    0.00000  )
        2     Si  28.0855   tau(    2) = (   -0.25000    0.25000    0.25000  )

     Computing dynamical matrix for 
                    q = (   0.5000000  -0.5000000   0.5000000 )
 
     13 Sym.Ops. (with q -> -q+G )


     G cutoff =  736.4420  (   1492 G-vectors)     FFT grid: ( 40, 40, 40)
     number of k points=   182

     PseudoPot. # 1 for Si read from file:
     ./pseudos/Si.nc.UPF
     MD5 check sum: 9e2d726316af3d4752eea8ab0afbb951
     Pseudo is Norm-conserving + core correction, Zval =  4.0
     Generated using ONCVPSP code by D. R. Hamann
     Using radial grid of 1510 points,  6 beta functions with: 
                l(1) =   0
                l(2) =   0
                l(3) =   1
                l(4) =   1
                l(5) =   2
                l(6) =   2


     Atomic displacements:
     There are    4 irreducible representations

     Representation     1      1 modes -  To be done

     Representation     2      1 modes -  To be done

     Representation     3      2 modes -  To be done

     Representation     4      2 modes -  To be done



     Alpha used in Ewald sum =   2.8000
     PHONON       :      1h 2m CPU      1h 2m WALL



     Representation #   1 mode #   1

     Self-consistent Calculation

      iter #   1 total cpu time :  3764.3 secs   av.it.:   5.8
      thresh= 1.000E-02 alpha_mix =  0.700 |ddv_scf|^2 =  2.852E-06

      iter #   2 total cpu time :  3777.6 secs   av.it.:   9.9
      thresh= 1.689E-04 alpha_mix =  0.700 |ddv_scf|^2 =  2.631E-06

      iter #   3 total cpu time :  3790.8 secs   av.it.:   9.3
      thresh= 1.622E-04 alpha_mix =  0.700 |ddv_scf|^2 =  3.521E-10

      iter #   4 total cpu time :  3808.9 secs   av.it.:  10.1
      thresh= 1.876E-06 alpha_mix =  0.700 |ddv_scf|^2 =  6.056E-12

      iter #   5 total cpu time :  3827.7 secs   av.it.:   9.8
      thresh= 2.461E-07 alpha_mix =  0.700 |ddv_scf|^2 =  8.678E-14

      iter #   6 total cpu time :  3851.6 secs   av.it.:   9.8
      thresh= 2.946E-08 alpha_mix =  0.700 |ddv_scf|^2 =  1.136E-15

      iter #   7 total cpu time :  3875.4 secs   av.it.:   9.8
      thresh= 3.370E-09 alpha_mix =  0.700 |ddv_scf|^2 =  3.894E-18

     End of self-consistent calculation

     Convergence has been achieved 


     Representation #   2 mode #   2

     Self-consistent Calculation

      iter #   1 total cpu time :  3887.8 secs   av.it.:   6.7
      thresh= 1.000E-02 alpha_mix =  0.700 |ddv_scf|^2 =  4.356E-05

      iter #   2 total cpu time :  3908.2 secs   av.it.:  10.0
      thresh= 6.600E-04 alpha_mix =  0.700 |ddv_scf|^2 =  1.423E-04

      iter #   3 total cpu time :  3921.2 secs   av.it.:   9.0
      thresh= 1.193E-03 alpha_mix =  0.700 |ddv_scf|^2 =  8.427E-09

      iter #   4 total cpu time :  3930.0 secs   av.it.:   9.8
      thresh= 9.180E-06 alpha_mix =  0.700 |ddv_scf|^2 =  1.767E-10

      iter #   5 total cpu time :  3949.3 secs   av.it.:  10.3
      thresh= 1.329E-06 alpha_mix =  0.700 |ddv_scf|^2 =  8.752E-12

      iter #   6 total cpu time :  3973.8 secs   av.it.:  10.1
      thresh= 2.958E-07 alpha_mix =  0.700 |ddv_scf|^2 =  2.431E-13

      iter #   7 total cpu time :  3995.1 secs   av.it.:   9.4
      thresh= 4.930E-08 alpha_mix =  0.700 |ddv_scf|^2 =  6.388E-17

     End of self-consistent calculation

     Convergence has been achieved 


     Representation #   3 modes #   3   4

     Self-consistent Calculation

      iter #   1 total cpu time :  4017.8 secs   av.it.:   6.1
      thresh= 1.000E-02 alpha_mix =  0.700 |ddv_scf|^2 =  1.007E-07

      iter #   2 total cpu time :  4045.8 secs   av.it.:  11.3
      thresh= 3.173E-05 alpha_mix =  0.700 |ddv_scf|^2 =  8.533E-09

      iter #   3 total cpu time :  4085.9 secs   av.it.:  11.1
      thresh= 9.238E-06 alpha_mix =  0.700 |ddv_scf|^2 =  5.713E-11

      iter #   4 total cpu time :  4118.2 secs   av.it.:  11.2
      thresh= 7.559E-07 alpha_mix =  0.700 |ddv_scf|^2 =  6.387E-14

      iter #   5 total cpu time :  4148.3 secs   av.it.:  11.4
      thresh= 2.527E-08 alpha_mix =  0.700 |ddv_scf|^2 =  8.414E-16

     End of self-consistent calculation

     Convergence has been achieved 


     Representation #   4 modes #   5   6

     Self-consistent Calculation

      iter #   1 total cpu time :  4173.4 secs   av.it.:   5.5
      thresh= 1.000E-02 alpha_mix =  0.700 |ddv_scf|^2 =  1.142E-08

      iter #   2 total cpu time :  4196.1 secs   av.it.:  11.2
      thresh= 1.069E-05 alpha_mix =  0.700 |ddv_scf|^2 =  2.995E-10

      iter #   3 total cpu time :  4228.8 secs   av.it.:  11.2
      thresh= 1.731E-06 alpha_mix =  0.700 |ddv_scf|^2 =  1.842E-11

      iter #   4 total cpu time :  4265.9 secs   av.it.:  11.3
      thresh= 4.291E-07 alpha_mix =  0.700 |ddv_scf|^2 =  7.876E-14

      iter #   5 total cpu time :  4300.6 secs   av.it.:  11.2
      thresh= 2.806E-08 alpha_mix =  0.700 |ddv_scf|^2 =  1.259E-15

      iter #   6 total cpu time :  4330.4 secs   av.it.:  11.3
      thresh= 3.548E-09 alpha_mix =  0.700 |ddv_scf|^2 =  2.659E-18

     End of self-consistent calculation

     Convergence has been achieved 
 
     Number of q in the star =    4
     List of q in the star:
          1   0.500000000  -0.500000000   0.500000000
          2   0.500000000   0.500000000   0.500000000
          3  -0.500000000   0.500000000   0.500000000
          4   0.500000000   0.500000000  -0.500000000

     Diagonalizing the dynamical matrix

     q = (    0.500000000  -0.500000000   0.500000000 ) 

 **************************************************************************
     freq (    1) =       3.158235 [THz] =     105.347376 [cm-1]
     freq (    2) =       3.158235 [THz] =     105.347376 [cm-1]
     freq (    3) =      11.168954 [THz] =     372.556203 [cm-1]
     freq (    4) =      12.390675 [THz] =     413.308423 [cm-1]
     freq (    5) =      14.704243 [THz] =     490.480753 [cm-1]
     freq (    6) =      14.704243 [THz] =     490.480753 [cm-1]
 **************************************************************************

     Calculation of q =    0.0000000   0.3333333   0.0000000
 
     Parallelization info
     --------------------
     sticks:   dense  smooth     PW     G-vecs:    dense   smooth      PW
     Min          71      71     22                 1489     1489     264
     Max          72      72     23                 1492     1492     267
     Sum        1003    1003    313                20875    20875    3719
 
     Using Slab Decomposition
 

     Title: 
     default                                                                    


     bravais-lattice index     =            2
     lattice parameter (alat)  =      10.1899  a.u.
     unit-cell volume          =     264.5151 (a.u.)^3
     number of atoms/cell      =            2
     number of atomic types    =            1
     number of electrons       =         8.00
     number of Kohn-Sham states=            4
     kinetic-energy cutoff     =      70.0000  Ry
     charge density cutoff     =     280.0000  Ry
     Exchange-correlation= PW
                           (   1   4   0   0   0   0   0)

     celldm(1)=  10.189905  celldm(2)=   0.000000  celldm(3)=   0.000000
     celldm(4)=   0.000000  celldm(5)=   0.000000  celldm(6)=   0.000000

     crystal axes: (cart. coord. in units of alat)
               a(1) = (  -0.500000   0.000000   0.500000 )  
               a(2) = (   0.000000   0.500000   0.500000 )  
               a(3) = (  -0.500000   0.500000   0.000000 )  

     reciprocal axes: (cart. coord. in units 2 pi/alat)
               b(1) = ( -1.000000 -1.000000  1.000000 )  
               b(2) = (  1.000000  1.000000  1.000000 )  
               b(3) = ( -1.000000  1.000000 -1.000000 )  


     PseudoPot. # 1 for Si read from file:
     ./pseudos/Si.nc.UPF
     MD5 check sum: 9e2d726316af3d4752eea8ab0afbb951
     Pseudo is Norm-conserving + core correction, Zval =  4.0
     Generated using ONCVPSP code by D. R. Hamann
     Using radial grid of 1510 points,  6 beta functions with: 
                l(1) =   0
                l(2) =   0
                l(3) =   1
                l(4) =   1
                l(5) =   2
                l(6) =   2

     atomic species   valence    mass     pseudopotential
        Si             4.00    28.08550     Si( 1.00)

     48 Sym. Ops., with inversion, found



   Cartesian axes

     site n.     atom                  positions (alat units)
         1           Si  tau(   1) = (   0.0000000   0.0000000   0.0000000  )
         2           Si  tau(   2) = (  -0.2500000   0.2500000   0.2500000  )

     number of k points=   252

     Number of k-points >= 100: set verbosity='high' to print them.

     Dense  grid:    20875 G-vectors     FFT dimensions: (  40,  40,  40)

     Estimated max dynamical RAM per process >       2.10 MB

     Estimated total dynamical RAM >      58.67 MB

     The potential is recalculated from file :
     /fastscratch/tsievers/QE_TMP_DIR/_ph0/si_ph_bench_nk_2_n_procs_28_4.save/charge-density

     Starting wfcs are    8 atomic wfcs

     Band Structure Calculation
     Davidson diagonalization with overlap

     ethr =  1.25E-10,  avg # of iterations = 12.8

     total cpu time spent up to now is      656.0 secs

     End of band structure calculation

     Number of k-points >= 100: set verbosity='high' to print the bands.

     highest occupied level (ev):     6.1106

     Writing config to output data dir /fastscratch/tsievers/QE_TMP_DIR/_ph0/si_ph_bench_nk_2_n_procs_28_4.save/

     default                                                                    

     bravais-lattice index     =            2
     lattice parameter (alat)  =      10.1899  a.u.
     unit-cell volume          =     264.5151 (a.u.)^3
     number of atoms/cell      =            2
     number of atomic types    =            1
     kinetic-energy cut-off    =      70.0000  Ry
     charge density cut-off    =     280.0000  Ry
     convergence threshold     =      1.0E-15
     beta                      =       0.7000
     number of iterations used =            4
     Exchange-correlation= PW
                           (   1   4   0   0   0   0   0)


     celldm(1)=   10.18990  celldm(2)=    0.00000  celldm(3)=    0.00000
     celldm(4)=    0.00000  celldm(5)=    0.00000  celldm(6)=    0.00000

     crystal axes: (cart. coord. in units of alat)
               a(1) = ( -0.5000  0.0000  0.5000 )  
               a(2) = (  0.0000  0.5000  0.5000 )  
               a(3) = ( -0.5000  0.5000  0.0000 )  

     reciprocal axes: (cart. coord. in units 2 pi/alat)
               b(1) = ( -1.0000 -1.0000  1.0000 )  
               b(2) = (  1.0000  1.0000  1.0000 )  
               b(3) = ( -1.0000  1.0000 -1.0000 )  


     Atoms inside the unit cell: 

     Cartesian axes

     site n.  atom      mass           positions (alat units)
        1     Si  28.0855   tau(    1) = (    0.00000    0.00000    0.00000  )
        2     Si  28.0855   tau(    2) = (   -0.25000    0.25000    0.25000  )

     Computing dynamical matrix for 
                    q = (   0.0000000   0.3333333   0.0000000 )
 
      8 Sym.Ops. (no q -> -q+G )


     G cutoff =  736.4420  (   1492 G-vectors)     FFT grid: ( 40, 40, 40)
     number of k points=   252

     PseudoPot. # 1 for Si read from file:
     ./pseudos/Si.nc.UPF
     MD5 check sum: 9e2d726316af3d4752eea8ab0afbb951
     Pseudo is Norm-conserving + core correction, Zval =  4.0
     Generated using ONCVPSP code by D. R. Hamann
     Using radial grid of 1510 points,  6 beta functions with: 
                l(1) =   0
                l(2) =   0
                l(3) =   1
                l(4) =   1
                l(5) =   2
                l(6) =   2

     Mode symmetry, C_4v (4mm)  point group:


     Atomic displacements:
     There are    4 irreducible representations

     Representation     1      1 modes -  To be done

     Representation     2      1 modes -  To be done

     Representation     3      2 modes -  To be done

     Representation     4      2 modes -  To be done



     Alpha used in Ewald sum =   2.8000
     PHONON       :      1h13m CPU      1h14m WALL



     Representation #   1 mode #   1

     Self-consistent Calculation

      iter #   1 total cpu time :  4504.6 secs   av.it.:   6.8
      thresh= 1.000E-02 alpha_mix =  0.700 |ddv_scf|^2 =  1.891E-03

      iter #   2 total cpu time :  4518.4 secs   av.it.:   9.1
      thresh= 4.348E-03 alpha_mix =  0.700 |ddv_scf|^2 =  5.765E-02

      iter #   3 total cpu time :  4535.4 secs   av.it.:   8.1
      thresh= 1.000E-02 alpha_mix =  0.700 |ddv_scf|^2 =  5.304E-08

      iter #   4 total cpu time :  4553.8 secs   av.it.:   9.0
      thresh= 2.303E-05 alpha_mix =  0.700 |ddv_scf|^2 =  2.524E-09

      iter #   5 total cpu time :  4572.2 secs   av.it.:   8.6
      thresh= 5.024E-06 alpha_mix =  0.700 |ddv_scf|^2 =  8.198E-10

      iter #   6 total cpu time :  4593.4 secs   av.it.:   8.2
      thresh= 2.863E-06 alpha_mix =  0.700 |ddv_scf|^2 =  1.109E-12

      iter #   7 total cpu time :  4609.6 secs   av.it.:   8.5
      thresh= 1.053E-07 alpha_mix =  0.700 |ddv_scf|^2 =  2.500E-14

      iter #   8 total cpu time :  4637.0 secs   av.it.:   8.4
      thresh= 1.581E-08 alpha_mix =  0.700 |ddv_scf|^2 =  3.217E-16

     End of self-consistent calculation

     Convergence has been achieved 


     Representation #   2 mode #   2

     Self-consistent Calculation

      iter #   1 total cpu time :  4655.0 secs   av.it.:   5.9
      thresh= 1.000E-02 alpha_mix =  0.700 |ddv_scf|^2 =  2.886E-07

      iter #   2 total cpu time :  4673.1 secs   av.it.:  10.5
      thresh= 5.372E-05 alpha_mix =  0.700 |ddv_scf|^2 =  4.667E-08

      iter #   3 total cpu time :  4698.3 secs   av.it.:  10.2
      thresh= 2.160E-05 alpha_mix =  0.700 |ddv_scf|^2 =  5.902E-10

      iter #   4 total cpu time :  4717.0 secs   av.it.:  10.4
      thresh= 2.430E-06 alpha_mix =  0.700 |ddv_scf|^2 =  2.451E-11

      iter #   5 total cpu time :  4740.7 secs   av.it.:  10.4
      thresh= 4.951E-07 alpha_mix =  0.700 |ddv_scf|^2 =  5.585E-14

      iter #   6 total cpu time :  4765.6 secs   av.it.:  10.5
      thresh= 2.363E-08 alpha_mix =  0.700 |ddv_scf|^2 =  1.116E-15

      iter #   7 total cpu time :  4792.5 secs   av.it.:  10.5
      thresh= 3.340E-09 alpha_mix =  0.700 |ddv_scf|^2 =  2.604E-17

     End of self-consistent calculation

     Convergence has been achieved 


     Representation #   3 modes #   3   4

     Self-consistent Calculation

      iter #   1 total cpu time :  4829.0 secs   av.it.:   6.1
      thresh= 1.000E-02 alpha_mix =  0.700 |ddv_scf|^2 =  5.223E-08

      iter #   2 total cpu time :  4874.5 secs   av.it.:  11.4
      thresh= 2.285E-05 alpha_mix =  0.700 |ddv_scf|^2 =  4.762E-09

      iter #   3 total cpu time :  4906.4 secs   av.it.:  11.1
      thresh= 6.901E-06 alpha_mix =  0.700 |ddv_scf|^2 =  5.549E-11

      iter #   4 total cpu time :  4953.1 secs   av.it.:  11.3
      thresh= 7.449E-07 alpha_mix =  0.700 |ddv_scf|^2 =  6.242E-13

      iter #   5 total cpu time :  4994.2 secs   av.it.:  11.2
      thresh= 7.901E-08 alpha_mix =  0.700 |ddv_scf|^2 =  1.036E-14

      iter #   6 total cpu time :  5042.3 secs   av.it.:  11.6
      thresh= 1.018E-08 alpha_mix =  0.700 |ddv_scf|^2 =  4.220E-17

     End of self-consistent calculation

     Convergence has been achieved 


     Representation #   4 modes #   5   6

     Self-consistent Calculation

      iter #   1 total cpu time :  5070.4 secs   av.it.:   6.0
      thresh= 1.000E-02 alpha_mix =  0.700 |ddv_scf|^2 =  6.886E-08

      iter #   2 total cpu time :  5109.2 secs   av.it.:  11.3
      thresh= 2.624E-05 alpha_mix =  0.700 |ddv_scf|^2 =  6.493E-09

      iter #   3 total cpu time :  5143.7 secs   av.it.:  11.0
      thresh= 8.058E-06 alpha_mix =  0.700 |ddv_scf|^2 =  5.875E-11

      iter #   4 total cpu time :  5194.1 secs   av.it.:  11.3
      thresh= 7.665E-07 alpha_mix =  0.700 |ddv_scf|^2 =  3.994E-13

      iter #   5 total cpu time :  5245.2 secs   av.it.:  11.1
      thresh= 6.320E-08 alpha_mix =  0.700 |ddv_scf|^2 =  9.483E-15

      iter #   6 total cpu time :  5293.8 secs   av.it.:  11.6
      thresh= 9.738E-09 alpha_mix =  0.700 |ddv_scf|^2 =  4.017E-17

     End of self-consistent calculation

     Convergence has been achieved 
 
     Number of q in the star =    6
     List of q in the star:
          1   0.000000000   0.333333333   0.000000000
          2   0.333333333   0.000000000   0.000000000
          3   0.000000000   0.000000000   0.333333333
          4   0.000000000  -0.333333333   0.000000000
          5  -0.333333333   0.000000000   0.000000000
          6   0.000000000   0.000000000  -0.333333333

     Diagonalizing the dynamical matrix

     q = (    0.000000000   0.333333333   0.000000000 ) 

 **************************************************************************
     freq (    1) =       2.948355 [THz] =      98.346539 [cm-1]
     freq (    2) =       2.948355 [THz] =      98.346539 [cm-1]
     freq (    3) =       4.953266 [THz] =     165.223179 [cm-1]
     freq (    4) =      14.670257 [THz] =     489.347088 [cm-1]
     freq (    5) =      14.670257 [THz] =     489.347088 [cm-1]
     freq (    6) =      15.143104 [THz] =     505.119586 [cm-1]
 **************************************************************************

     Mode symmetry, C_4v (4mm)  point group:

     freq (   1-   2) =         98.3  [cm-1]   --> E    G_5 D_5       
     freq (   3-   3) =        165.2  [cm-1]   --> A_1  G_1 D_1       
     freq (   4-   5) =        489.3  [cm-1]   --> E    G_5 D_5       
     freq (   6-   6) =        505.1  [cm-1]   --> B_2  G_4 D_2'      

     Calculation of q =   -0.1666667   0.5000000  -0.1666667
 
     Parallelization info
     --------------------
     sticks:   dense  smooth     PW     G-vecs:    dense   smooth      PW
     Min          71      71     22                 1489     1489     272
     Max          72      72     23                 1492     1492     277
     Sum        1003    1003    313                20875    20875    3839
 
     Using Slab Decomposition
 

     Title: 
     default                                                                    


     bravais-lattice index     =            2
     lattice parameter (alat)  =      10.1899  a.u.
     unit-cell volume          =     264.5151 (a.u.)^3
     number of atoms/cell      =            2
     number of atomic types    =            1
     number of electrons       =         8.00
     number of Kohn-Sham states=            4
     kinetic-energy cutoff     =      70.0000  Ry
     charge density cutoff     =     280.0000  Ry
     Exchange-correlation= PW
                           (   1   4   0   0   0   0   0)

     celldm(1)=  10.189905  celldm(2)=   0.000000  celldm(3)=   0.000000
     celldm(4)=   0.000000  celldm(5)=   0.000000  celldm(6)=   0.000000

     crystal axes: (cart. coord. in units of alat)
               a(1) = (  -0.500000   0.000000   0.500000 )  
               a(2) = (   0.000000   0.500000   0.500000 )  
               a(3) = (  -0.500000   0.500000   0.000000 )  

     reciprocal axes: (cart. coord. in units 2 pi/alat)
               b(1) = ( -1.000000 -1.000000  1.000000 )  
               b(2) = (  1.000000  1.000000  1.000000 )  
               b(3) = ( -1.000000  1.000000 -1.000000 )  


     PseudoPot. # 1 for Si read from file:
     ./pseudos/Si.nc.UPF
     MD5 check sum: 9e2d726316af3d4752eea8ab0afbb951
     Pseudo is Norm-conserving + core correction, Zval =  4.0
     Generated using ONCVPSP code by D. R. Hamann
     Using radial grid of 1510 points,  6 beta functions with: 
                l(1) =   0
                l(2) =   0
                l(3) =   1
                l(4) =   1
                l(5) =   2
                l(6) =   2

     atomic species   valence    mass     pseudopotential
        Si             4.00    28.08550     Si( 1.00)

     48 Sym. Ops., with inversion, found



   Cartesian axes

     site n.     atom                  positions (alat units)
         1           Si  tau(   1) = (   0.0000000   0.0000000   0.0000000  )
         2           Si  tau(   2) = (  -0.2500000   0.2500000   0.2500000  )

     number of k points=   936

     Number of k-points >= 100: set verbosity='high' to print them.

     Dense  grid:    20875 G-vectors     FFT dimensions: (  40,  40,  40)

     Estimated max dynamical RAM per process >       2.11 MB

     Estimated total dynamical RAM >      58.98 MB

     The potential is recalculated from file :
     /fastscratch/tsievers/QE_TMP_DIR/_ph0/si_ph_bench_nk_2_n_procs_28_4.save/charge-density

     Starting wfcs are    8 atomic wfcs

     Band Structure Calculation
     Davidson diagonalization with overlap

     ethr =  1.25E-10,  avg # of iterations = 12.8

     total cpu time spent up to now is     1183.7 secs

     End of band structure calculation

     Number of k-points >= 100: set verbosity='high' to print the bands.

     highest occupied level (ev):     6.1106

     Writing config to output data dir /fastscratch/tsievers/QE_TMP_DIR/_ph0/si_ph_bench_nk_2_n_procs_28_4.save/

     default                                                                    

     bravais-lattice index     =            2
     lattice parameter (alat)  =      10.1899  a.u.
     unit-cell volume          =     264.5151 (a.u.)^3
     number of atoms/cell      =            2
     number of atomic types    =            1
     kinetic-energy cut-off    =      70.0000  Ry
     charge density cut-off    =     280.0000  Ry
     convergence threshold     =      1.0E-15
     beta                      =       0.7000
     number of iterations used =            4
     Exchange-correlation= PW
                           (   1   4   0   0   0   0   0)


[...]

      iter #   7 total cpu time : 11645.7 secs   av.it.:  10.6
      thresh= 1.555E-07 alpha_mix =  0.700 |ddv_scf|^2 =  6.733E-14

      iter #   8 total cpu time : 11728.8 secs   av.it.:  10.6
      thresh= 2.595E-08 alpha_mix =  0.700 |ddv_scf|^2 =  3.941E-14

      iter #   9 total cpu time : 11806.9 secs   av.it.:   9.9
      thresh= 1.985E-08 alpha_mix =  0.700 |ddv_scf|^2 =  1.108E-14

      iter #  10 total cpu time : 11883.3 secs   av.it.:   9.6
      thresh= 1.052E-08 alpha_mix =  0.700 |ddv_scf|^2 =  1.645E-15

      iter #  11 total cpu time : 11952.4 secs   av.it.:   9.6
      thresh= 4.056E-09 alpha_mix =  0.700 |ddv_scf|^2 =  4.825E-17

     End of self-consistent calculation

     Convergence has been achieved 


     Representation #   2 mode #   2

     Self-consistent Calculation

      iter #   1 total cpu time : 12022.0 secs   av.it.:   6.4
      thresh= 1.000E-02 alpha_mix =  0.700 |ddv_scf|^2 =  9.004E-06

      iter #   2 total cpu time : 12125.5 secs   av.it.:  10.4
      thresh= 3.001E-04 alpha_mix =  0.700 |ddv_scf|^2 =  2.649E-05

      iter #   3 total cpu time : 12202.0 secs   av.it.:   9.4
      thresh= 5.147E-04 alpha_mix =  0.700 |ddv_scf|^2 =  1.119E-07

      iter #   4 total cpu time : 12275.1 secs   av.it.:   9.9
      thresh= 3.346E-05 alpha_mix =  0.700 |ddv_scf|^2 =  2.613E-09

      iter #   5 total cpu time : 12357.2 secs   av.it.:  10.2
      thresh= 5.112E-06 alpha_mix =  0.700 |ddv_scf|^2 =  1.446E-10

      iter #   6 total cpu time : 12454.1 secs   av.it.:  10.5
      thresh= 1.203E-06 alpha_mix =  0.700 |ddv_scf|^2 =  4.259E-12

      iter #   7 total cpu time : 12547.1 secs   av.it.:  10.6
      thresh= 2.064E-07 alpha_mix =  0.700 |ddv_scf|^2 =  1.622E-13

      iter #   8 total cpu time : 12624.4 secs   av.it.:  10.7
      thresh= 4.027E-08 alpha_mix =  0.700 |ddv_scf|^2 =  3.937E-14

      iter #   9 total cpu time : 12710.7 secs   av.it.:  10.0
      thresh= 1.984E-08 alpha_mix =  0.700 |ddv_scf|^2 =  1.278E-14

      iter #  10 total cpu time : 12792.6 secs   av.it.:  10.0
      thresh= 1.130E-08 alpha_mix =  0.700 |ddv_scf|^2 =  2.210E-15

      iter #  11 total cpu time : 12878.9 secs   av.it.:   9.9
      thresh= 4.701E-09 alpha_mix =  0.700 |ddv_scf|^2 =  1.031E-16

     End of self-consistent calculation

     Convergence has been achieved 


     Representation #   3 mode #   3

     Self-consistent Calculation

      iter #   1 total cpu time : 12942.0 secs   av.it.:   6.5
      thresh= 1.000E-02 alpha_mix =  0.700 |ddv_scf|^2 =  1.232E-05

      iter #   2 total cpu time : 13023.7 secs   av.it.:  10.4
      thresh= 3.510E-04 alpha_mix =  0.700 |ddv_scf|^2 =  3.669E-05

      iter #   3 total cpu time : 13109.0 secs   av.it.:   9.3
      thresh= 6.057E-04 alpha_mix =  0.700 |ddv_scf|^2 =  1.736E-07

      iter #   4 total cpu time : 13206.8 secs   av.it.:   9.7
      thresh= 4.167E-05 alpha_mix =  0.700 |ddv_scf|^2 =  2.560E-09

      iter #   5 total cpu time : 13288.7 secs   av.it.:  10.2
      thresh= 5.060E-06 alpha_mix =  0.700 |ddv_scf|^2 =  1.309E-10

      iter #   6 total cpu time : 13381.0 secs   av.it.:  10.4
      thresh= 1.144E-06 alpha_mix =  0.700 |ddv_scf|^2 =  2.571E-12

      iter #   7 total cpu time : 13489.2 secs   av.it.:  10.5
      thresh= 1.603E-07 alpha_mix =  0.700 |ddv_scf|^2 =  9.529E-14

      iter #   8 total cpu time : 13577.7 secs   av.it.:  10.4
      thresh= 3.087E-08 alpha_mix =  0.700 |ddv_scf|^2 =  3.568E-14

      iter #   9 total cpu time : 13659.6 secs   av.it.:  10.0
      thresh= 1.889E-08 alpha_mix =  0.700 |ddv_scf|^2 =  7.107E-15

      iter #  10 total cpu time : 13722.2 secs   av.it.:   9.7
      thresh= 8.431E-09 alpha_mix =  0.700 |ddv_scf|^2 =  1.005E-15

      iter #  11 total cpu time : 13800.6 secs   av.it.:   9.7
      thresh= 3.171E-09 alpha_mix =  0.700 |ddv_scf|^2 =  3.793E-17

     End of self-consistent calculation

     Convergence has been achieved 


     Representation #   4 mode #   4

     Self-consistent Calculation

      iter #   1 total cpu time : 13862.6 secs   av.it.:   6.1
      thresh= 1.000E-02 alpha_mix =  0.700 |ddv_scf|^2 =  1.485E-06

      iter #   2 total cpu time : 13945.1 secs   av.it.:  10.6
      thresh= 1.219E-04 alpha_mix =  0.700 |ddv_scf|^2 =  1.670E-06

      iter #   3 total cpu time : 14019.2 secs   av.it.:   9.8
      thresh= 1.292E-04 alpha_mix =  0.700 |ddv_scf|^2 =  5.869E-08

      iter #   4 total cpu time : 14094.4 secs   av.it.:   9.9
      thresh= 2.423E-05 alpha_mix =  0.700 |ddv_scf|^2 =  6.098E-09

      iter #   5 total cpu time : 14182.0 secs   av.it.:   9.9
      thresh= 7.809E-06 alpha_mix =  0.700 |ddv_scf|^2 =  1.844E-10

      iter #   6 total cpu time : 14266.6 secs   av.it.:  10.4
      thresh= 1.358E-06 alpha_mix =  0.700 |ddv_scf|^2 =  2.980E-12

      iter #   7 total cpu time : 14351.5 secs   av.it.:  10.7
      thresh= 1.726E-07 alpha_mix =  0.700 |ddv_scf|^2 =  1.703E-13

      iter #   8 total cpu time : 14431.0 secs   av.it.:  10.6
      thresh= 4.126E-08 alpha_mix =  0.700 |ddv_scf|^2 =  1.925E-14

      iter #   9 total cpu time : 14505.0 secs   av.it.:  10.3
      thresh= 1.387E-08 alpha_mix =  0.700 |ddv_scf|^2 =  8.813E-15

      iter #  10 total cpu time : 14570.1 secs   av.it.:   9.9
      thresh= 9.388E-09 alpha_mix =  0.700 |ddv_scf|^2 =  1.530E-15

      iter #  11 total cpu time : 14654.2 secs   av.it.:   9.9
      thresh= 3.912E-09 alpha_mix =  0.700 |ddv_scf|^2 =  1.203E-16

     End of self-consistent calculation

     Convergence has been achieved 


     Representation #   5 mode #   5

     Self-consistent Calculation

      iter #   1 total cpu time : 14712.1 secs   av.it.:   6.0
      thresh= 1.000E-02 alpha_mix =  0.700 |ddv_scf|^2 =  3.465E-07

      iter #   2 total cpu time : 14817.7 secs   av.it.:  10.5
      thresh= 5.886E-05 alpha_mix =  0.700 |ddv_scf|^2 =  4.758E-08

      iter #   3 total cpu time : 14903.4 secs   av.it.:  10.1
      thresh= 2.181E-05 alpha_mix =  0.700 |ddv_scf|^2 =  2.567E-10

      iter #   4 total cpu time : 14997.2 secs   av.it.:  10.4
      thresh= 1.602E-06 alpha_mix =  0.700 |ddv_scf|^2 =  1.586E-12

      iter #   5 total cpu time : 15097.5 secs   av.it.:  10.4
      thresh= 1.259E-07 alpha_mix =  0.700 |ddv_scf|^2 =  2.815E-14

      iter #   6 total cpu time : 15191.4 secs   av.it.:  10.6
      thresh= 1.678E-08 alpha_mix =  0.700 |ddv_scf|^2 =  3.087E-16

     End of self-consistent calculation

     Convergence has been achieved 


     Representation #   6 mode #   6

     Self-consistent Calculation

      iter #   1 total cpu time : 15263.8 secs   av.it.:   6.0
      thresh= 1.000E-02 alpha_mix =  0.700 |ddv_scf|^2 =  3.465E-07

      iter #   2 total cpu time : 15334.5 secs   av.it.:  10.5
      thresh= 5.886E-05 alpha_mix =  0.700 |ddv_scf|^2 =  4.758E-08

      iter #   3 total cpu time : 15387.3 secs   av.it.:  10.1
      thresh= 2.181E-05 alpha_mix =  0.700 |ddv_scf|^2 =  2.567E-10

      iter #   4 total cpu time : 15466.9 secs   av.it.:  10.4
      thresh= 1.602E-06 alpha_mix =  0.700 |ddv_scf|^2 =  1.586E-12

      iter #   5 total cpu time : 15567.4 secs   av.it.:  10.4
      thresh= 1.259E-07 alpha_mix =  0.700 |ddv_scf|^2 =  2.816E-14

      iter #   6 total cpu time : 15657.4 secs   av.it.:  10.6
      thresh= 1.678E-08 alpha_mix =  0.700 |ddv_scf|^2 =  3.087E-16

     End of self-consistent calculation

     Convergence has been achieved 
 
     Number of q in the star =   24
     List of q in the star:
          1   0.666666667  -0.333333333   0.666666667
          2  -0.666666667  -0.333333333  -0.666666667
          3   0.666666667  -0.333333333  -0.666666667
          4  -0.666666667  -0.333333333   0.666666667
          5  -0.333333333   0.666666667  -0.666666667
          6  -0.666666667   0.666666667  -0.333333333
          7   0.666666667   0.333333333   0.666666667
          8  -0.666666667   0.333333333   0.666666667
          9   0.666666667   0.333333333  -0.666666667
         10  -0.333333333   0.666666667   0.666666667
         11   0.333333333   0.666666667  -0.666666667
         12  -0.333333333  -0.666666667  -0.666666667
         13   0.666666667  -0.666666667   0.333333333
         14   0.666666667   0.666666667  -0.333333333
         15  -0.666666667  -0.666666667  -0.333333333
         16  -0.666666667   0.666666667   0.333333333
         17   0.333333333  -0.666666667   0.666666667
         18   0.333333333   0.666666667   0.666666667
         19  -0.666666667   0.333333333  -0.666666667
         20  -0.333333333  -0.666666667   0.666666667
         21  -0.666666667  -0.666666667   0.333333333
         22   0.666666667   0.666666667   0.333333333
         23   0.333333333  -0.666666667  -0.666666667
         24   0.666666667  -0.666666667  -0.333333333

     Diagonalizing the dynamical matrix

     q = (    0.666666667  -0.333333333   0.666666667 ) 

 **************************************************************************
     freq (    1) =       3.791314 [THz] =     126.464616 [cm-1]
     freq (    2) =       5.121975 [THz] =     170.850703 [cm-1]
     freq (    3) =       9.765274 [THz] =     325.734476 [cm-1]
     freq (    4) =      12.374167 [THz] =     412.757777 [cm-1]
     freq (    5) =      14.273429 [THz] =     476.110340 [cm-1]
     freq (    6) =      14.573905 [THz] =     486.133148 [cm-1]
 **************************************************************************

     Mode symmetry, C_s (m)     point group:

     freq (   1-   1) =        126.5  [cm-1]   --> A''                
     freq (   2-   2) =        170.9  [cm-1]   --> A'                 
     freq (   3-   3) =        325.7  [cm-1]   --> A'                 
     freq (   4-   4) =        412.8  [cm-1]   --> A'                 
     freq (   5-   5) =        476.1  [cm-1]   --> A''                
     freq (   6-   6) =        486.1  [cm-1]   --> A'                 

     Calculation of q =    0.5000000  -0.1666667   0.5000000
 
     Parallelization info
     --------------------
     sticks:   dense  smooth     PW     G-vecs:    dense   smooth      PW
     Min          71      71     23                 1489     1489     286
     Max          72      72     25                 1492     1492     288
     Sum        1003    1003    337                20875    20875    4015
 
     Using Slab Decomposition
 

     Title: 
     default                                                                    


     bravais-lattice index     =            2
     lattice parameter (alat)  =      10.1899  a.u.
     unit-cell volume          =     264.5151 (a.u.)^3
     number of atoms/cell      =            2
     number of atomic types    =            1
     number of electrons       =         8.00
     number of Kohn-Sham states=            4
     kinetic-energy cutoff     =      70.0000  Ry
     charge density cutoff     =     280.0000  Ry
     Exchange-correlation= PW
                           (   1   4   0   0   0   0   0)

     celldm(1)=  10.189905  celldm(2)=   0.000000  celldm(3)=   0.000000
     celldm(4)=   0.000000  celldm(5)=   0.000000  celldm(6)=   0.000000

     crystal axes: (cart. coord. in units of alat)
               a(1) = (  -0.500000   0.000000   0.500000 )  
               a(2) = (   0.000000   0.500000   0.500000 )  
               a(3) = (  -0.500000   0.500000   0.000000 )  

     reciprocal axes: (cart. coord. in units 2 pi/alat)
               b(1) = ( -1.000000 -1.000000  1.000000 )  
               b(2) = (  1.000000  1.000000  1.000000 )  
               b(3) = ( -1.000000  1.000000 -1.000000 )  


     PseudoPot. # 1 for Si read from file:
     ./pseudos/Si.nc.UPF
     MD5 check sum: 9e2d726316af3d4752eea8ab0afbb951
     Pseudo is Norm-conserving + core correction, Zval =  4.0
     Generated using ONCVPSP code by D. R. Hamann
     Using radial grid of 1510 points,  6 beta functions with: 
                l(1) =   0
                l(2) =   0
                l(3) =   1
                l(4) =   1
                l(5) =   2
                l(6) =   2

     atomic species   valence    mass     pseudopotential
        Si             4.00    28.08550     Si( 1.00)

     48 Sym. Ops., with inversion, found



   Cartesian axes

     site n.     atom                  positions (alat units)
         1           Si  tau(   1) = (   0.0000000   0.0000000   0.0000000  )
         2           Si  tau(   2) = (  -0.2500000   0.2500000   0.2500000  )

     number of k points=   936

     Number of k-points >= 100: set verbosity='high' to print them.

     Dense  grid:    20875 G-vectors     FFT dimensions: (  40,  40,  40)

     Estimated max dynamical RAM per process >       2.12 MB

     Estimated total dynamical RAM >      59.23 MB

     The potential is recalculated from file :
     /fastscratch/tsievers/QE_TMP_DIR/_ph0/si_ph_bench_nk_2_n_procs_28_4.save/charge-density

     Starting wfcs are    8 atomic wfcs

     Band Structure Calculation
     Davidson diagonalization with overlap

     ethr =  1.25E-10,  avg # of iterations = 12.8

     total cpu time spent up to now is     2387.8 secs

     End of band structure calculation

     Number of k-points >= 100: set verbosity='high' to print the bands.

     highest occupied level (ev):     6.1106

     Writing config to output data dir /fastscratch/tsievers/QE_TMP_DIR/_ph0/si_ph_bench_nk_2_n_procs_28_4.save/

     default                                                                    

     bravais-lattice index     =            2
     lattice parameter (alat)  =      10.1899  a.u.
     unit-cell volume          =     264.5151 (a.u.)^3
     number of atoms/cell      =            2
     number of atomic types    =            1
     kinetic-energy cut-off    =      70.0000  Ry
     charge density cut-off    =     280.0000  Ry
     convergence threshold     =      1.0E-15
     beta                      =       0.7000
     number of iterations used =            4
     Exchange-correlation= PW
                           (   1   4   0   0   0   0   0)


     celldm(1)=   10.18990  celldm(2)=    0.00000  celldm(3)=    0.00000
     celldm(4)=    0.00000  celldm(5)=    0.00000  celldm(6)=    0.00000

     crystal axes: (cart. coord. in units of alat)
               a(1) = ( -0.5000  0.0000  0.5000 )  
               a(2) = (  0.0000  0.5000  0.5000 )  
               a(3) = ( -0.5000  0.5000  0.0000 )  

     reciprocal axes: (cart. coord. in units 2 pi/alat)
               b(1) = ( -1.0000 -1.0000  1.0000 )  
               b(2) = (  1.0000  1.0000  1.0000 )  
               b(3) = ( -1.0000  1.0000 -1.0000 )  


     Atoms inside the unit cell: 

     Cartesian axes

     site n.  atom      mass           positions (alat units)
        1     Si  28.0855   tau(    1) = (    0.00000    0.00000    0.00000  )
        2     Si  28.0855   tau(    2) = (   -0.25000    0.25000    0.25000  )

     Computing dynamical matrix for 
                    q = (   0.5000000  -0.1666667   0.5000000 )
 
      2 Sym.Ops. (no q -> -q+G )


     G cutoff =  736.4420  (   1492 G-vectors)     FFT grid: ( 40, 40, 40)
     number of k points=   936

     PseudoPot. # 1 for Si read from file:
     ./pseudos/Si.nc.UPF
     MD5 check sum: 9e2d726316af3d4752eea8ab0afbb951
     Pseudo is Norm-conserving + core correction, Zval =  4.0
     Generated using ONCVPSP code by D. R. Hamann
     Using radial grid of 1510 points,  6 beta functions with: 
                l(1) =   0
                l(2) =   0
                l(3) =   1
                l(4) =   1
                l(5) =   2
                l(6) =   2

     Mode symmetry, C_s (m)     point group:


     Atomic displacements:
     There are    6 irreducible representations

     Representation     1      1 modes -  To be done

     Representation     2      1 modes -  To be done

     Representation     3      1 modes -  To be done

     Representation     4      1 modes -  To be done

     Representation     5      1 modes -  To be done

     Representation     6      1 modes -  To be done



     Alpha used in Ewald sum =   2.8000
     PHONON       :      4h27m CPU      4h31m WALL



     Representation #   1 mode #   1

     Self-consistent Calculation

      iter #   1 total cpu time : 16309.5 secs   av.it.:   6.6
      thresh= 1.000E-02 alpha_mix =  0.700 |ddv_scf|^2 =  2.577E-05

      iter #   2 total cpu time : 16392.0 secs   av.it.:  10.3
      thresh= 5.076E-04 alpha_mix =  0.700 |ddv_scf|^2 =  1.193E-04

      iter #   3 total cpu time : 16453.1 secs   av.it.:   9.1
      thresh= 1.092E-03 alpha_mix =  0.700 |ddv_scf|^2 =  2.573E-07

      iter #   4 total cpu time : 16525.1 secs   av.it.:   9.8
      thresh= 5.073E-05 alpha_mix =  0.700 |ddv_scf|^2 =  1.356E-09

      iter #   5 total cpu time : 16593.5 secs   av.it.:  10.4
      thresh= 3.683E-06 alpha_mix =  0.700 |ddv_scf|^2 =  9.808E-11

      iter #   6 total cpu time : 16665.0 secs   av.it.:  10.4
      thresh= 9.903E-07 alpha_mix =  0.700 |ddv_scf|^2 =  2.966E-12

      iter #   7 total cpu time : 16736.1 secs   av.it.:  10.6
      thresh= 1.722E-07 alpha_mix =  0.700 |ddv_scf|^2 =  6.089E-14

      iter #   8 total cpu time : 16807.6 secs   av.it.:  10.7
      thresh= 2.468E-08 alpha_mix =  0.700 |ddv_scf|^2 =  2.232E-14

      iter #   9 total cpu time : 16876.5 secs   av.it.:  10.0
      thresh= 1.494E-08 alpha_mix =  0.700 |ddv_scf|^2 =  1.769E-14

      iter #  10 total cpu time : 16956.4 secs   av.it.:   9.3
      thresh= 1.330E-08 alpha_mix =  0.700 |ddv_scf|^2 =  2.260E-16

     End of self-consistent calculation

     Convergence has been achieved 


     Representation #   2 mode #   2

     Self-consistent Calculation

      iter #   1 total cpu time : 17015.9 secs   av.it.:   6.3
      thresh= 1.000E-02 alpha_mix =  0.700 |ddv_scf|^2 =  6.572E-06

      iter #   2 total cpu time : 17098.9 secs   av.it.:  10.4
      thresh= 2.564E-04 alpha_mix =  0.700 |ddv_scf|^2 =  2.478E-05

      iter #   3 total cpu time : 17166.2 secs   av.it.:   9.2
      thresh= 4.978E-04 alpha_mix =  0.700 |ddv_scf|^2 =  2.895E-07

      iter #   4 total cpu time : 17234.7 secs   av.it.:   9.9
      thresh= 5.381E-05 alpha_mix =  0.700 |ddv_scf|^2 =  1.850E-09

      iter #   5 total cpu time : 17303.9 secs   av.it.:  10.4
      thresh= 4.301E-06 alpha_mix =  0.700 |ddv_scf|^2 =  1.200E-10

      iter #   6 total cpu time : 17382.1 secs   av.it.:  10.4
      thresh= 1.096E-06 alpha_mix =  0.700 |ddv_scf|^2 =  4.982E-12

      iter #   7 total cpu time : 17447.9 secs   av.it.:  10.6
      thresh= 2.232E-07 alpha_mix =  0.700 |ddv_scf|^2 =  1.934E-13

      iter #   8 total cpu time : 17519.7 secs   av.it.:  10.7
      thresh= 4.398E-08 alpha_mix =  0.700 |ddv_scf|^2 =  1.430E-13

      iter #   9 total cpu time : 17583.1 secs   av.it.:   9.4
      thresh= 3.782E-08 alpha_mix =  0.700 |ddv_scf|^2 =  1.907E-14

      iter #  10 total cpu time : 17644.4 secs   av.it.:   9.9
      thresh= 1.381E-08 alpha_mix =  0.700 |ddv_scf|^2 =  5.189E-15

      iter #  11 total cpu time : 17719.0 secs   av.it.:   9.8
      thresh= 7.203E-09 alpha_mix =  0.700 |ddv_scf|^2 =  2.268E-16

     End of self-consistent calculation

     Convergence has been achieved 


     Representation #   3 mode #   3

     Self-consistent Calculation

      iter #   1 total cpu time : 17783.9 secs   av.it.:   6.6
      thresh= 1.000E-02 alpha_mix =  0.700 |ddv_scf|^2 =  2.765E-05

      iter #   2 total cpu time : 17847.8 secs   av.it.:  10.2
      thresh= 5.259E-04 alpha_mix =  0.700 |ddv_scf|^2 =  1.312E-04

      iter #   3 total cpu time : 17913.6 secs   av.it.:   9.0
      thresh= 1.146E-03 alpha_mix =  0.700 |ddv_scf|^2 =  1.057E-07

      iter #   4 total cpu time : 17987.8 secs   av.it.:  10.1
      thresh= 3.251E-05 alpha_mix =  0.700 |ddv_scf|^2 =  2.640E-09

      iter #   5 total cpu time : 18057.7 secs   av.it.:  10.3
      thresh= 5.139E-06 alpha_mix =  0.700 |ddv_scf|^2 =  1.899E-10
