Module for gcc 10.2:
(GNU C/C++/FORTRAN compilers v10.2.0) - loaded.
Module for OpenMPI 4.1.0-gcc10.2-infiniband loaded.

     Program PWSCF v.7.0 starts on 12Feb2022 at  2: 1:25 

     This program is part of the open-source Quantum ESPRESSO suite
     for quantum simulation of materials; please cite
         "P. Giannozzi et al., J. Phys.:Condens. Matter 21 395502 (2009);
         "P. Giannozzi et al., J. Phys.:Condens. Matter 29 465901 (2017);
         "P. Giannozzi et al., J. Chem. Phys. 152 154105 (2020);
          URL http://www.quantum-espresso.org", 
     in publications or presentations arising from this work. More details at
     http://www.quantum-espresso.org/quote

     Parallel version (MPI), running on    30 processors

     MPI processes distributed on     2 nodes
     R & G space division:  proc/nbgrp/npool/nimage =      30
     57323 MiB available memory on the printing compute node when the environment starts

     Reading input from in_files/TaS2_bench_30.scf

     Current dimensions of program PWSCF are:
     Max number of different atomic species (ntypx) = 10
     Max number of k-points (npk) =  40000
     Max angular momentum in pseudopotentials (lmaxx) =  4

     Subspace diagonalization in iterative solution of the eigenvalue problem:
     a serial algorithm will be used


     Parallelization info
     --------------------
     sticks:   dense  smooth     PW     G-vecs:    dense   smooth      PW
     Min          36      18      5                 4396     1552     247
     Max          37      19      6                 4409     1569     270
     Sum        1099     559    163               132031    46753    7647

     Using Slab Decomposition



     bravais-lattice index     =            4
     lattice parameter (alat)  =       6.3117  a.u.
     unit-cell volume          =     977.9382 (a.u.)^3
     number of atoms/cell      =            3
     number of atomic types    =            2
     number of electrons       =        25.00
     number of Kohn-Sham states=           17
     kinetic-energy cutoff     =      50.0000  Ry
     charge density cutoff     =     400.0000  Ry
     scf convergence threshold =      1.0E-18
     mixing beta               =       0.7000
     number of iterations used =            8  plain     mixing
     Exchange-correlation=  SLA  PW   PBX  PBC
                           (   1   4   3   4   0   0   0)

     celldm(1)=   6.311685  celldm(2)=   0.000000  celldm(3)=   4.491018
     celldm(4)=   0.000000  celldm(5)=   0.000000  celldm(6)=   0.000000

     crystal axes: (cart. coord. in units of alat)
               a(1) = (   1.000000   0.000000   0.000000 )  
               a(2) = (  -0.500000   0.866025   0.000000 )  
               a(3) = (   0.000000   0.000000   4.491018 )  

     reciprocal axes: (cart. coord. in units 2 pi/alat)
               b(1) = (  1.000000  0.577350 -0.000000 )  
               b(2) = (  0.000000  1.154701  0.000000 )  
               b(3) = (  0.000000 -0.000000  0.222667 )  


     PseudoPot. # 1 for Ta read from file:
     ./pseudos/Ta_pbe_v1.uspp.F.UPF
     MD5 check sum: f8bbe9446314a3b8ea5d9f3e3836c939
     Pseudo is Ultrasoft + core correction, Zval = 13.0
     Generated by new atomic code, or converted to UPF format
     Using radial grid of  921 points,  7 beta functions with: 
                l(1) =   0
                l(2) =   0
                l(3) =   1
                l(4) =   1
                l(5) =   2
                l(6) =   2
                l(7) =   3
     Q(r) pseudized with  6 coefficients,  rinner =    1.300   1.300   1.300
                                                       1.300   1.300   1.300
                                                       1.300

     PseudoPot. # 2 for S  read from file:
     ./pseudos/s_pbe_v1.4.uspp.F.UPF
     MD5 check sum: 88d86576ff6df21479756cfb9bdac1df
     Pseudo is Ultrasoft + core correction, Zval =  6.0
     Generated by new atomic code, or converted to UPF format
     Using radial grid of  907 points,  6 beta functions with: 
                l(1) =   0
                l(2) =   0
                l(3) =   1
                l(4) =   1
                l(5) =   2
                l(6) =   2
     Q(r) pseudized with  8 coefficients,  rinner =    1.300   1.300   1.300
                                                       1.300   1.300

     atomic species   valence    mass     pseudopotential
        Ta            13.00   180.95000     Ta( 1.00)
        S              6.00    32.06000     S ( 1.00)

     12 Sym. Ops. (no inversion) found



   Cartesian axes

     site n.     atom                  positions (alat units)
         1           S   tau(   1) = (  -0.0000000   0.5773503   0.4679075  )
         2           Ta  tau(   2) = (   0.0000000   0.0000000   0.0000000  )
         3           S   tau(   3) = (  -0.0000000   0.5773503  -0.4679075  )

     number of k points=   217  Marzari-Vanderbilt smearing, width (Ry)=  0.0020

     Number of k-points >= 100: set verbosity='high' to print them.

     Dense  grid:   132031 G-vectors     FFT dimensions: (  45,  45, 192)

     Smooth grid:    46753 G-vectors     FFT dimensions: (  30,  30, 128)

     Estimated max dynamical RAM per process >      43.82 MB

     Estimated total dynamical RAM >       1.28 GB
 ----2D----2D----2D----2D----2D----2D----2D----2D----2D----2D----2D----2D
  The code is running with the 2D cutoff
  Please refer to:
  Sohier, T., Calandra, M., & Mauri, F. (2017), 
  Density functional perturbation theory for gated two-dimensional heterostructures:
  Theoretical developments and application to flexural phonons in graphene.
  Physical Review B, 96(7), 75448. https://doi.org/10.1103/PhysRevB.96.075448
 ----2D----2D----2D----2D----2D----2D----2D----2D----2D----2D----2D----2D

     Initial potential from superposition of free atoms

     starting charge      24.9988, renormalised to      25.0000

     negative rho (up, down):  9.496E-02 0.000E+00
     Starting wfcs are   21 randomized atomic wfcs

     total cpu time spent up to now is       16.1 secs

     Self-consistent Calculation

     iteration #  1     ecut=    50.00 Ry     beta= 0.70
     Davidson diagonalization with overlap
     ethr =  1.00E-02,  avg # of iterations =  3.1

     Threshold (ethr) on eigenvalues was too large:
     Diagonalizing with lowered threshold

     Davidson diagonalization with overlap
     ethr =  5.45E-04,  avg # of iterations =  2.9

     negative rho (up, down):  9.869E-02 0.000E+00

     total cpu time spent up to now is       90.1 secs

     total energy              =    -190.25439947 Ry
     estimated scf accuracy    <       0.14569343 Ry

     iteration #  2     ecut=    50.00 Ry     beta= 0.70
     Davidson diagonalization with overlap
     ethr =  5.83E-04,  avg # of iterations =  2.1

     negative rho (up, down):  9.950E-02 0.000E+00

     total cpu time spent up to now is      130.0 secs

     total energy              =    -190.22238577 Ry
     estimated scf accuracy    <       0.38307008 Ry

     iteration #  3     ecut=    50.00 Ry     beta= 0.70
     Davidson diagonalization with overlap
     ethr =  5.83E-04,  avg # of iterations =  2.0

     negative rho (up, down):  1.002E-01 0.000E+00

     total cpu time spent up to now is      166.1 secs

     total energy              =    -190.30429251 Ry
     estimated scf accuracy    <       0.05112971 Ry

     iteration #  4     ecut=    50.00 Ry     beta= 0.70
     Davidson diagonalization with overlap
     ethr =  2.05E-04,  avg # of iterations =  2.0

     negative rho (up, down):  1.010E-01 0.000E+00

     total cpu time spent up to now is      198.1 secs

     total energy              =    -190.31090286 Ry
     estimated scf accuracy    <       0.00104072 Ry

     iteration #  5     ecut=    50.00 Ry     beta= 0.70
     Davidson diagonalization with overlap
     ethr =  4.16E-06,  avg # of iterations =  4.6

     negative rho (up, down):  1.010E-01 0.000E+00

     total cpu time spent up to now is      246.7 secs

     total energy              =    -190.31142578 Ry
     estimated scf accuracy    <       0.00062169 Ry

     iteration #  6     ecut=    50.00 Ry     beta= 0.70
     Davidson diagonalization with overlap
     ethr =  2.49E-06,  avg # of iterations =  2.0

     negative rho (up, down):  1.011E-01 0.000E+00

     total cpu time spent up to now is      279.4 secs

     total energy              =    -190.31146121 Ry
     estimated scf accuracy    <       0.00005278 Ry

     iteration #  7     ecut=    50.00 Ry     beta= 0.70
     Davidson diagonalization with overlap
     ethr =  2.11E-07,  avg # of iterations =  3.6

     negative rho (up, down):  1.011E-01 0.000E+00

     total cpu time spent up to now is      318.4 secs

     total energy              =    -190.31148276 Ry
     estimated scf accuracy    <       0.00000756 Ry

     iteration #  8     ecut=    50.00 Ry     beta= 0.70
     Davidson diagonalization with overlap
     ethr =  3.02E-08,  avg # of iterations =  2.8

     negative rho (up, down):  1.011E-01 0.000E+00

     total cpu time spent up to now is      355.8 secs

     total energy              =    -190.31148500 Ry
     estimated scf accuracy    <       0.00000004 Ry

     iteration #  9     ecut=    50.00 Ry     beta= 0.70
     Davidson diagonalization with overlap
     ethr =  1.56E-10,  avg # of iterations =  7.3

     negative rho (up, down):  1.011E-01 0.000E+00

     total cpu time spent up to now is      429.7 secs

     total energy              =    -190.31148511 Ry
     estimated scf accuracy    <       0.00000046 Ry

     iteration # 10     ecut=    50.00 Ry     beta= 0.70
     Davidson diagonalization with overlap
     ethr =  1.56E-10,  avg # of iterations =  3.2

     negative rho (up, down):  1.011E-01 0.000E+00

     total cpu time spent up to now is      471.2 secs

     total energy              =    -190.31148519 Ry
     estimated scf accuracy    <          2.0E-09 Ry

     iteration # 11     ecut=    50.00 Ry     beta= 0.70
     Davidson diagonalization with overlap
     ethr =  8.15E-12,  avg # of iterations =  4.2

     negative rho (up, down):  1.011E-01 0.000E+00

     total cpu time spent up to now is      518.6 secs

     total energy              =    -190.31148518 Ry
     estimated scf accuracy    <       0.00000004 Ry

     iteration # 12     ecut=    50.00 Ry     beta= 0.70
     Davidson diagonalization with overlap
     ethr =  8.15E-12,  avg # of iterations =  3.7

     negative rho (up, down):  1.011E-01 0.000E+00

     total cpu time spent up to now is      562.5 secs

     total energy              =    -190.31148519 Ry
     estimated scf accuracy    <          3.7E-10 Ry

     iteration # 13     ecut=    50.00 Ry     beta= 0.70
     Davidson diagonalization with overlap
     ethr =  1.46E-12,  avg # of iterations =  2.6

     negative rho (up, down):  1.011E-01 0.000E+00

     total cpu time spent up to now is      599.5 secs

     total energy              =    -190.31148519 Ry
     estimated scf accuracy    <          5.3E-12 Ry

     iteration # 14     ecut=    50.00 Ry     beta= 0.70
     Davidson diagonalization with overlap
     ethr =  1.00E-13,  avg # of iterations =  3.0

     negative rho (up, down):  1.011E-01 0.000E+00

     total cpu time spent up to now is      636.4 secs

     total energy              =    -190.31148519 Ry
     estimated scf accuracy    <          9.6E-13 Ry

     iteration # 15     ecut=    50.00 Ry     beta= 0.70
     Davidson diagonalization with overlap
     ethr =  1.00E-13,  avg # of iterations =  1.3

     negative rho (up, down):  1.011E-01 0.000E+00

     total cpu time spent up to now is      667.0 secs

     total energy              =    -190.31148519 Ry
     estimated scf accuracy    <          5.5E-13 Ry

     iteration # 16     ecut=    50.00 Ry     beta= 0.70
     Davidson diagonalization with overlap
     ethr =  1.00E-13,  avg # of iterations =  1.0

     negative rho (up, down):  1.011E-01 0.000E+00

     total cpu time spent up to now is      697.1 secs

     total energy              =    -190.31148519 Ry
     estimated scf accuracy    <          1.2E-13 Ry

     iteration # 17     ecut=    50.00 Ry     beta= 0.70
     Davidson diagonalization with overlap
     ethr =  1.00E-13,  avg # of iterations =  1.0

     negative rho (up, down):  1.011E-01 0.000E+00

     total cpu time spent up to now is      727.3 secs

     total energy              =    -190.31148519 Ry
     estimated scf accuracy    <          2.0E-14 Ry

     iteration # 18     ecut=    50.00 Ry     beta= 0.70
     Davidson diagonalization with overlap
     ethr =  1.00E-13,  avg # of iterations =  1.0

     negative rho (up, down):  1.011E-01 0.000E+00

     total cpu time spent up to now is      757.4 secs

     total energy              =    -190.31148519 Ry
     estimated scf accuracy    <          3.6E-15 Ry

     iteration # 19     ecut=    50.00 Ry     beta= 0.70
     Davidson diagonalization with overlap
     ethr =  1.00E-13,  avg # of iterations =  1.0

     negative rho (up, down):  1.011E-01 0.000E+00

     total cpu time spent up to now is      787.6 secs

     total energy              =    -190.31148519 Ry
     estimated scf accuracy    <          6.5E-16 Ry

     iteration # 20     ecut=    50.00 Ry     beta= 0.70
     Davidson diagonalization with overlap
     ethr =  1.00E-13,  avg # of iterations =  1.0

     negative rho (up, down):  1.011E-01 0.000E+00

     total cpu time spent up to now is      817.8 secs

     total energy              =    -190.31148519 Ry
     estimated scf accuracy    <          1.1E-15 Ry

     iteration # 21     ecut=    50.00 Ry     beta= 0.70
     Davidson diagonalization with overlap
     ethr =  1.00E-13,  avg # of iterations =  1.0

     negative rho (up, down):  1.011E-01 0.000E+00

     total cpu time spent up to now is      847.9 secs

     total energy              =    -190.31148519 Ry
     estimated scf accuracy    <          2.3E-15 Ry

     iteration # 22     ecut=    50.00 Ry     beta= 0.70
     Davidson diagonalization with overlap
     ethr =  1.00E-13,  avg # of iterations =  1.0

     negative rho (up, down):  1.011E-01 0.000E+00

     total cpu time spent up to now is      878.1 secs

     total energy              =    -190.31148519 Ry
     estimated scf accuracy    <          4.1E-15 Ry

     iteration # 23     ecut=    50.00 Ry     beta= 0.70
     Davidson diagonalization with overlap
     ethr =  1.00E-13,  avg # of iterations =  1.0

     negative rho (up, down):  1.011E-01 0.000E+00

     total cpu time spent up to now is      908.3 secs

     total energy              =    -190.31148519 Ry
     estimated scf accuracy    <          4.9E-15 Ry

     iteration # 24     ecut=    50.00 Ry     beta= 0.70
     Davidson diagonalization with overlap
     ethr =  1.00E-13,  avg # of iterations =  1.0

     negative rho (up, down):  1.011E-01 0.000E+00

     total cpu time spent up to now is      938.4 secs

     total energy              =    -190.31148519 Ry
     estimated scf accuracy    <          5.3E-15 Ry

     iteration # 25     ecut=    50.00 Ry     beta= 0.70
     Davidson diagonalization with overlap
     ethr =  1.00E-13,  avg # of iterations =  1.0

     negative rho (up, down):  1.011E-01 0.000E+00

     total cpu time spent up to now is      968.6 secs

     total energy              =    -190.31148519 Ry
     estimated scf accuracy    <          5.5E-15 Ry

     iteration # 26     ecut=    50.00 Ry     beta= 0.70
     Davidson diagonalization with overlap
     ethr =  1.00E-13,  avg # of iterations =  1.0

     negative rho (up, down):  1.011E-01 0.000E+00

     total cpu time spent up to now is      998.7 secs

     total energy              =    -190.31148519 Ry
     estimated scf accuracy    <          5.2E-15 Ry

     iteration # 27     ecut=    50.00 Ry     beta= 0.70
     Davidson diagonalization with overlap
     ethr =  1.00E-13,  avg # of iterations =  1.0

     negative rho (up, down):  1.011E-01 0.000E+00

     total cpu time spent up to now is     1034.5 secs

     total energy              =    -190.31148519 Ry
     estimated scf accuracy    <          4.7E-15 Ry

     iteration # 28     ecut=    50.00 Ry     beta= 0.70
     Davidson diagonalization with overlap
     ethr =  1.00E-13,  avg # of iterations =  1.0

     negative rho (up, down):  1.011E-01 0.000E+00

     total cpu time spent up to now is     1064.7 secs

     total energy              =    -190.31148519 Ry
     estimated scf accuracy    <          5.9E-15 Ry

     iteration # 29     ecut=    50.00 Ry     beta= 0.70
     Davidson diagonalization with overlap
     ethr =  1.00E-13,  avg # of iterations =  1.0

     negative rho (up, down):  1.011E-01 0.000E+00

     total cpu time spent up to now is     1094.8 secs

     total energy              =    -190.31148519 Ry
     estimated scf accuracy    <          1.2E-14 Ry

     iteration # 30     ecut=    50.00 Ry     beta= 0.70
     Davidson diagonalization with overlap
     ethr =  1.00E-13,  avg # of iterations =  1.0

     negative rho (up, down):  1.011E-01 0.000E+00

     total cpu time spent up to now is     1125.0 secs

     total energy              =    -190.31148519 Ry
     estimated scf accuracy    <          4.1E-15 Ry

     iteration # 31     ecut=    50.00 Ry     beta= 0.70
     Davidson diagonalization with overlap
     ethr =  1.00E-13,  avg # of iterations =  1.0

     negative rho (up, down):  1.011E-01 0.000E+00

     total cpu time spent up to now is     1155.2 secs

     total energy              =    -190.31148519 Ry
     estimated scf accuracy    <          1.5E-15 Ry

     iteration # 32     ecut=    50.00 Ry     beta= 0.70
     Davidson diagonalization with overlap
     ethr =  1.00E-13,  avg # of iterations =  1.0

     negative rho (up, down):  1.011E-01 0.000E+00

     total cpu time spent up to now is     1185.4 secs

     total energy              =    -190.31148519 Ry
     estimated scf accuracy    <          1.2E-16 Ry

     iteration # 33     ecut=    50.00 Ry     beta= 0.70
     Davidson diagonalization with overlap
     ethr =  1.00E-13,  avg # of iterations =  1.0

     negative rho (up, down):  1.011E-01 0.000E+00

     total cpu time spent up to now is     1215.6 secs

     total energy              =    -190.31148519 Ry
     estimated scf accuracy    <          4.6E-18 Ry

     iteration # 34     ecut=    50.00 Ry     beta= 0.70
     Davidson diagonalization with overlap
     ethr =  1.00E-13,  avg # of iterations =  1.0

     negative rho (up, down):  1.011E-01 0.000E+00

     total cpu time spent up to now is     1245.8 secs

     total energy              =    -190.31148519 Ry
     estimated scf accuracy    <          2.4E-17 Ry

     iteration # 35     ecut=    50.00 Ry     beta= 0.70
     Davidson diagonalization with overlap
     ethr =  1.00E-13,  avg # of iterations =  1.0

     negative rho (up, down):  1.011E-01 0.000E+00

     total cpu time spent up to now is     1275.9 secs

     total energy              =    -190.31148519 Ry
     estimated scf accuracy    <          9.4E-18 Ry

     iteration # 36     ecut=    50.00 Ry     beta= 0.70
     Davidson diagonalization with overlap
     ethr =  1.00E-13,  avg # of iterations =  1.0

     negative rho (up, down):  1.011E-01 0.000E+00

     total cpu time spent up to now is     1308.1 secs

     End of self-consistent calculation

     Number of k-points >= 100: set verbosity='high' to print the bands.

     the Fermi energy is    -5.9182 ev

!    total energy              =    -190.31148519 Ry
     estimated scf accuracy    <          5.6E-20 Ry
     smearing contrib. (-TS)   =       0.00000705 Ry
     internal energy E=F+TS    =    -190.31149224 Ry

     The total energy is F=E-TS. E is the sum of the following terms:
     one-electron contribution =   -1044.74925537 Ry
     hartree contribution      =     517.61800543 Ry
     xc contribution           =     -59.14415725 Ry
     ewald contribution        =     395.96391495 Ry

     convergence has been achieved in  36 iterations

     Writing all to output data dir /fastscratch/tsievers/QE_TMP_DIR/TaS2_bench_nprocs_48x48_30.save/

     init_run     :      9.82s CPU     15.57s WALL (       1 calls)
     electrons    :    797.39s CPU   1292.04s WALL (       1 calls)

     Called by init_run:
     wfcinit      :      9.03s CPU     14.60s WALL (       1 calls)
     potinit      :      0.24s CPU      0.27s WALL (       1 calls)
     hinit0       :      0.45s CPU      0.56s WALL (       1 calls)

     Called by electrons:
     c_bands      :    660.03s CPU   1070.13s WALL (      37 calls)
     sum_band     :    132.75s CPU    215.43s WALL (      37 calls)
     v_of_rho     :      1.88s CPU      3.05s WALL (      37 calls)
     newd         :      2.00s CPU      2.11s WALL (      37 calls)
     mix_rho      :      0.57s CPU      0.92s WALL (      37 calls)

     Called by c_bands:
     init_us_2    :      1.82s CPU      2.59s WALL (   16275 calls)
     init_us_2:cp :      1.79s CPU      2.56s WALL (   16275 calls)
     cegterg      :    648.69s CPU   1047.00s WALL (    8029 calls)

     Called by *egterg:
     cdiaghg      :      7.07s CPU      9.36s WALL (   23311 calls)
     h_psi        :    603.60s CPU    988.25s WALL (   23745 calls)
     s_psi        :      5.31s CPU      7.41s WALL (   23745 calls)
     g_psi        :      0.24s CPU      0.31s WALL (   15499 calls)

     Called by h_psi:
     h_psi:calbec :     19.53s CPU     30.39s WALL (   23745 calls)
     vloc_psi     :    578.81s CPU    950.14s WALL (   23745 calls)
     add_vuspsi   :      5.08s CPU      7.46s WALL (   23745 calls)

     General routines
     calbec       :     27.46s CPU     42.58s WALL (   31774 calls)
     fft          :      2.37s CPU      3.99s WALL (     480 calls)
     ffts         :      0.24s CPU      0.33s WALL (      74 calls)
     fftw         :    696.31s CPU   1143.06s WALL (  786571 calls)
     interpolate  :      0.29s CPU      0.52s WALL (      37 calls)

     Parallel routines

     PWSCF        :  13m39.58s CPU  22m18.68s WALL


   This run was terminated on:   2:23:43  12Feb2022            

=------------------------------------------------------------------------------=
   JOB DONE.
=------------------------------------------------------------------------------=
