
     Program PHONON v.7.0 starts on  3Jun2022 at 18: 0:27 

     This program is part of the open-source Quantum ESPRESSO suite
     for quantum simulation of materials; please cite
         "P. Giannozzi et al., J. Phys.:Condens. Matter 21 395502 (2009);
         "P. Giannozzi et al., J. Phys.:Condens. Matter 29 465901 (2017);
         "P. Giannozzi et al., J. Chem. Phys. 152 154105 (2020);
          URL http://www.quantum-espresso.org", 
     in publications or presentations arising from this work. More details at
     http://www.quantum-espresso.org/quote

     Parallel version (MPI), running on    88 processors

     MPI processes distributed on     5 nodes
     path-images division:  nimage    =       2
     K-points division:     npool     =      22
     R & G space division:  proc/nbgrp/npool/nimage =       2
     14378 MiB available memory on the printing compute node when the environment starts
 
     Reading input from /fastscratch/tsievers/si_ph_benchmark_images/si_ph_bench_nimages_2_n_procs_88_0.ph
      Title line not specified: using 'default'.

     Reading xml data from directory:

     /fastscratch/tsievers/QE_TMP_DIR/si_ph_bench_nimages_2_n_procs_88_0.save/

     IMPORTANT: XC functional enforced from input :
     Exchange-correlation= PW
                           (   1   4   0   0   0   0   0)
     Any further DFT definition will be discarded
     Please, verify this is what you really want

 
     Parallelization info
     --------------------
     sticks:   dense  smooth     PW     G-vecs:    dense   smooth      PW
     Min         501     501    150                10436    10436    1738
     Max         502     502    151                10439    10439    1741
     Sum        1003    1003    301                20875    20875    3479
 
     Using Slab Decomposition
 
     Reading collected, re-writing distributed wavefunctions


     Dynamical matrices for ( 6, 6, 6)  uniform grid of q-points
     (  16 q-points):
       N         xq(1)         xq(2)         xq(3) 
       1   0.000000000   0.000000000   0.000000000
       2  -0.166666667   0.166666667  -0.166666667
       3  -0.333333333   0.333333333  -0.333333333
       4   0.500000000  -0.500000000   0.500000000
       5   0.000000000   0.333333333   0.000000000
       6  -0.166666667   0.500000000  -0.166666667
       7   0.666666667  -0.333333333   0.666666667
       8   0.500000000  -0.166666667   0.500000000
       9   0.333333333   0.000000000   0.333333333
      10   0.000000000   0.666666667   0.000000000
      11   0.833333333  -0.166666667   0.833333333
      12   0.666666667  -0.000000000   0.666666667
      13   0.000000000  -1.000000000   0.000000000
      14   0.666666667  -0.333333333   1.000000000
      15   0.500000000  -0.166666667   0.833333333
      16  -0.333333333  -1.000000000   0.000000000

      Image parallelization. There are  2 images and    76 representations
      The estimated total work is  1512 self-consistent (scf) runs
      I am image number     0 and my work is about  753 scf runs. I calculate: 
      q point number     1, representations:
       0 1 2
      q point number     2, representations:
       0 1 2 3 4
      q point number     3, representations:
       0 1 2 3 4
      q point number     4, representations:
       0 1 2 3 4
      q point number     5, representations:
       0 1 2 3 4
      q point number     6, representations:
       0 1 2 3 4 5 6
      q point number     7, representations:
       0 1 2 3 4 5 6
      q point number     8, representations:
       0 1 2 3 4 5 6
      q point number     9, representations:
       0 1 2 3 4

     Calculation of q =    0.0000000   0.0000000   0.0000000

     default                                                                    

     bravais-lattice index     =            2
     lattice parameter (alat)  =      10.1899  a.u.
     unit-cell volume          =     264.5151 (a.u.)^3
     number of atoms/cell      =            2
     number of atomic types    =            1
     kinetic-energy cut-off    =      70.0000  Ry
     charge density cut-off    =     280.0000  Ry
     convergence threshold     =      1.0E-15
     beta                      =       0.7000
     number of iterations used =            4
     Exchange-correlation= PW
                           (   1   4   0   0   0   0   0)


     celldm(1)=   10.18990  celldm(2)=    0.00000  celldm(3)=    0.00000
     celldm(4)=    0.00000  celldm(5)=    0.00000  celldm(6)=    0.00000

     crystal axes: (cart. coord. in units of alat)
               a(1) = ( -0.5000  0.0000  0.5000 )  
               a(2) = (  0.0000  0.5000  0.5000 )  
               a(3) = ( -0.5000  0.5000  0.0000 )  

     reciprocal axes: (cart. coord. in units 2 pi/alat)
               b(1) = ( -1.0000 -1.0000  1.0000 )  
               b(2) = (  1.0000  1.0000  1.0000 )  
               b(3) = ( -1.0000  1.0000 -1.0000 )  


     Atoms inside the unit cell: 

     Cartesian axes

     site n.  atom      mass           positions (alat units)
        1     Si  28.0855   tau(    1) = (    0.00000    0.00000    0.00000  )
        2     Si  28.0855   tau(    2) = (   -0.25000    0.25000    0.25000  )

     Computing dynamical matrix for 
                    q = (   0.0000000   0.0000000   0.0000000 )
 
     49 Sym.Ops. (with q -> -q+G )


     G cutoff =  736.4420  (  10439 G-vectors)     FFT grid: ( 40, 40, 40)
     number of k points=    28

     PseudoPot. # 1 for Si read from file:
     /fastscratch/tsievers/si_ph_benchmark_images//pseudos/Si.nc.UPF
     MD5 check sum: 9e2d726316af3d4752eea8ab0afbb951
     Pseudo is Norm-conserving + core correction, Zval =  4.0
     Generated using ONCVPSP code by D. R. Hamann
     Using radial grid of 1510 points,  6 beta functions with: 
                l(1) =   0
                l(2) =   0
                l(3) =   1
                l(4) =   1
                l(5) =   2
                l(6) =   2

     Mode symmetry, O_h (m-3m)  point group:


     Electric field:
     Dielectric constant
     Born effective charges in two ways 


     Atomic displacements:
     There are    2 irreducible representations

     Representation     1      3 modes -  To be done

     Representation     2      3 modes -  To be done



     Alpha used in Ewald sum =   2.8000
     PHONON       :      0.72s CPU      1.20s WALL


     Electric Fields Calculation

      iter #   1 total cpu time :     2.4 secs   av.it.:   6.5
      thresh= 1.000E-02 alpha_mix =  0.700 |ddv_scf|^2 =  1.151E-07

      iter #   2 total cpu time :     7.5 secs   av.it.:  11.6
      thresh= 3.392E-05 alpha_mix =  0.700 |ddv_scf|^2 =  4.931E-09

      iter #   3 total cpu time :    12.0 secs   av.it.:  11.5
      thresh= 7.022E-06 alpha_mix =  0.700 |ddv_scf|^2 =  5.558E-11

      iter #   4 total cpu time :    14.3 secs   av.it.:  11.8
      thresh= 7.455E-07 alpha_mix =  0.700 |ddv_scf|^2 =  3.297E-13

      iter #   5 total cpu time :    25.4 secs   av.it.:  10.8
      thresh= 5.742E-08 alpha_mix =  0.700 |ddv_scf|^2 =  1.210E-16

     End of electric fields calculation

          Dielectric constant in cartesian axis 

          (      13.312018075      -0.000000000      -0.000000000 )
          (      -0.000000000      13.312018075      -0.000000000 )
          (      -0.000000000      -0.000000000      13.312018075 )

          Effective charges (d Force / dE) in cartesian axis without acoustic sum rule applied (asr)

           atom      1   Si Mean Z*:       -0.00676
      Ex  (       -0.00676       -0.00000       -0.00000 )
      Ey  (       -0.00000       -0.00676        0.00000 )
      Ez  (       -0.00000        0.00000       -0.00676 )
           atom      2   Si Mean Z*:       -0.00676
      Ex  (       -0.00676       -0.00000        0.00000 )
      Ey  (       -0.00000       -0.00676        0.00000 )
      Ez  (        0.00000        0.00000       -0.00676 )

          Effective charges Sum: Mean:       -0.01352
             -0.01352       -0.00000       -0.00000
             -0.00000       -0.01352        0.00000
             -0.00000        0.00000       -0.01352

          Effective charges (d Force / dE) in cartesian axis with asr applied: 
           atom      1   Si Mean Z*:       -0.00000
      E*x (       -0.00000       -0.00000       -0.00000 )
      E*y (       -0.00000       -0.00000       -0.00000 )
      E*z (       -0.00000       -0.00000       -0.00000 )
           atom      2   Si Mean Z*:        0.00000
      E*x (        0.00000        0.00000        0.00000 )
      E*y (        0.00000        0.00000        0.00000 )
      E*z (        0.00000        0.00000        0.00000 )


     Representation #   1 modes #   1   2   3

     Self-consistent Calculation

      iter #   1 total cpu time :    28.7 secs   av.it.:   5.8
      thresh= 1.000E-02 alpha_mix =  0.700 |ddv_scf|^2 =  1.659E-08

      iter #   2 total cpu time :    32.5 secs   av.it.:  11.6
      thresh= 1.288E-05 alpha_mix =  0.700 |ddv_scf|^2 =  3.727E-10

      iter #   3 total cpu time :    38.8 secs   av.it.:  11.6
      thresh= 1.931E-06 alpha_mix =  0.700 |ddv_scf|^2 =  1.391E-11

      iter #   4 total cpu time :    42.5 secs   av.it.:  11.4
      thresh= 3.730E-07 alpha_mix =  0.700 |ddv_scf|^2 =  4.505E-14

      iter #   5 total cpu time :    44.7 secs   av.it.:  11.8
      thresh= 2.123E-08 alpha_mix =  0.700 |ddv_scf|^2 =  2.091E-16

     End of self-consistent calculation

     Convergence has been achieved 


     Representation #   2 modes #   4   5   6

     Self-consistent Calculation

      iter #   1 total cpu time :    50.0 secs   av.it.:   6.0
      thresh= 1.000E-02 alpha_mix =  0.700 |ddv_scf|^2 =  1.197E-08

      iter #   2 total cpu time :    53.9 secs   av.it.:  11.8
      thresh= 1.094E-05 alpha_mix =  0.700 |ddv_scf|^2 =  4.304E-10

      iter #   3 total cpu time :    57.6 secs   av.it.:  11.8
      thresh= 2.074E-06 alpha_mix =  0.700 |ddv_scf|^2 =  1.959E-11

      iter #   4 total cpu time :    60.9 secs   av.it.:  11.7
      thresh= 4.427E-07 alpha_mix =  0.700 |ddv_scf|^2 =  3.509E-14

      iter #   5 total cpu time :    63.3 secs   av.it.:  11.8
      thresh= 1.873E-08 alpha_mix =  0.700 |ddv_scf|^2 =  9.525E-17

     End of self-consistent calculation

     Convergence has been achieved 
 
     Number of q in the star =    1
     List of q in the star:
          1   0.000000000   0.000000000   0.000000000

          Dielectric constant in cartesian axis 

          (      13.312018075      -0.000000000      -0.000000000 )
          (      -0.000000000      13.312018075      -0.000000000 )
          (      -0.000000000      -0.000000000      13.312018075 )

          Effective charges (d Force / dE) in cartesian axis without acoustic sum rule applied (asr)

           atom      1   Si Mean Z*:       -0.00676
      Ex  (       -0.00676       -0.00000       -0.00000 )
      Ey  (       -0.00000       -0.00676        0.00000 )
      Ez  (       -0.00000        0.00000       -0.00676 )
           atom      2   Si Mean Z*:       -0.00676
      Ex  (       -0.00676       -0.00000        0.00000 )
      Ey  (       -0.00000       -0.00676        0.00000 )
      Ez  (        0.00000        0.00000       -0.00676 )

          Effective charges Sum: Mean:       -0.01352
             -0.01352       -0.00000       -0.00000
             -0.00000       -0.01352        0.00000
             -0.00000        0.00000       -0.01352

          Effective charges (d Force / dE) in cartesian axis with asr applied: 
           atom      1   Si Mean Z*:       -0.00000
      E*x (       -0.00000       -0.00000       -0.00000 )
      E*y (       -0.00000       -0.00000       -0.00000 )
      E*z (       -0.00000       -0.00000       -0.00000 )
           atom      2   Si Mean Z*:        0.00000
      E*x (        0.00000        0.00000        0.00000 )
      E*y (        0.00000        0.00000        0.00000 )
      E*z (        0.00000        0.00000        0.00000 )

          Effective charges (d P / du) in cartesian axis 

           atom      1   Si 
      Px  (       -0.00683       -0.00000       -0.00000 )
      Py  (       -0.00000       -0.00683        0.00000 )
      Pz  (       -0.00000        0.00000       -0.00683 )
           atom      2   Si 
      Px  (       -0.00683       -0.00000       -0.00000 )
      Py  (       -0.00000       -0.00683        0.00000 )
      Pz  (       -0.00000        0.00000       -0.00683 )

     Diagonalizing the dynamical matrix

     q = (    0.000000000   0.000000000   0.000000000 ) 

 **************************************************************************
     freq (    1) =      -0.113136 [THz] =      -3.773824 [cm-1]
     freq (    2) =      -0.113136 [THz] =      -3.773824 [cm-1]
     freq (    3) =      -0.113136 [THz] =      -3.773824 [cm-1]
     freq (    4) =      15.412119 [THz] =     514.092960 [cm-1]
     freq (    5) =      15.412119 [THz] =     514.092960 [cm-1]
     freq (    6) =      15.412119 [THz] =     514.092960 [cm-1]
 **************************************************************************

     Mode symmetry, O_h (m-3m)  point group:

     freq (   1-   3) =         -3.8  [cm-1]   --> T_1u G_15  G_4- I  
     freq (   4-   6) =        514.1  [cm-1]   --> T_2g G_25' G_5+ R  

     Calculation of q =   -0.1666667   0.1666667  -0.1666667

     Subspace diagonalization in iterative solution of the eigenvalue problem:
     a serial algorithm will be used

 
     Parallelization info
     --------------------
     sticks:   dense  smooth     PW     G-vecs:    dense   smooth      PW
     Min         501     501    156                10436    10436    1847
     Max         502     502    157                10439    10439    1848
     Sum        1003    1003    313                20875    20875    3695
 
     Using Slab Decomposition
 

     Title: 
     default                                                                    


     bravais-lattice index     =            2
     lattice parameter (alat)  =      10.1899  a.u.
     unit-cell volume          =     264.5151 (a.u.)^3
     number of atoms/cell      =            2
     number of atomic types    =            1
     number of electrons       =         8.00
     number of Kohn-Sham states=            4
     kinetic-energy cutoff     =      70.0000  Ry
     charge density cutoff     =     280.0000  Ry
     Exchange-correlation= PW
                           (   1   4   0   0   0   0   0)

     celldm(1)=  10.189905  celldm(2)=   0.000000  celldm(3)=   0.000000
     celldm(4)=   0.000000  celldm(5)=   0.000000  celldm(6)=   0.000000

     crystal axes: (cart. coord. in units of alat)
               a(1) = (  -0.500000   0.000000   0.500000 )  
               a(2) = (   0.000000   0.500000   0.500000 )  
               a(3) = (  -0.500000   0.500000   0.000000 )  

     reciprocal axes: (cart. coord. in units 2 pi/alat)
               b(1) = ( -1.000000 -1.000000  1.000000 )  
               b(2) = (  1.000000  1.000000  1.000000 )  
               b(3) = ( -1.000000  1.000000 -1.000000 )  


     PseudoPot. # 1 for Si read from file:
     /fastscratch/tsievers/si_ph_benchmark_images//pseudos/Si.nc.UPF
     MD5 check sum: 9e2d726316af3d4752eea8ab0afbb951
     Pseudo is Norm-conserving + core correction, Zval =  4.0
     Generated using ONCVPSP code by D. R. Hamann
     Using radial grid of 1510 points,  6 beta functions with: 
                l(1) =   0
                l(2) =   0
                l(3) =   1
                l(4) =   1
                l(5) =   2
                l(6) =   2

     atomic species   valence    mass     pseudopotential
        Si             4.00    28.08550     Si( 1.00)

     48 Sym. Ops., with inversion, found



   Cartesian axes

     site n.     atom                  positions (alat units)
         1           Si  tau(   1) = (   0.0000000   0.0000000   0.0000000  )
         2           Si  tau(   2) = (  -0.2500000   0.2500000   0.2500000  )

     number of k points=   364

     Number of k-points >= 100: set verbosity='high' to print them.

     Dense  grid:    20875 G-vectors     FFT dimensions: (  40,  40,  40)

     Estimated max dynamical RAM per process >       6.40 MB

     Estimated total dynamical RAM >     281.44 MB

     The potential is recalculated from file :
     /fastscratch/tsievers/QE_TMP_DIR/_ph0/si_ph_bench_nimages_2_n_procs_88_0.save/charge-density

     Starting wfcs are    8 atomic wfcs

     Band Structure Calculation
     Davidson diagonalization with overlap

     ethr =  1.25E-10,  avg # of iterations = 12.9

     total cpu time spent up to now is        4.8 secs

     End of band structure calculation

     Number of k-points >= 100: set verbosity='high' to print the bands.

     highest occupied level (ev):     6.1106

     Writing config to output data dir /fastscratch/tsievers/QE_TMP_DIR/_ph0/si_ph_bench_nimages_2_n_procs_88_0.save/

     default                                                                    

     bravais-lattice index     =            2
     lattice parameter (alat)  =      10.1899  a.u.
     unit-cell volume          =     264.5151 (a.u.)^3
     number of atoms/cell      =            2
     number of atomic types    =            1
     kinetic-energy cut-off    =      70.0000  Ry
     charge density cut-off    =     280.0000  Ry
     convergence threshold     =      1.0E-15
     beta                      =       0.7000
     number of iterations used =            4
     Exchange-correlation= PW
                           (   1   4   0   0   0   0   0)


     celldm(1)=   10.18990  celldm(2)=    0.00000  celldm(3)=    0.00000
     celldm(4)=    0.00000  celldm(5)=    0.00000  celldm(6)=    0.00000

     crystal axes: (cart. coord. in units of alat)
               a(1) = ( -0.5000  0.0000  0.5000 )  
               a(2) = (  0.0000  0.5000  0.5000 )  
               a(3) = ( -0.5000  0.5000  0.0000 )  

     reciprocal axes: (cart. coord. in units 2 pi/alat)
               b(1) = ( -1.0000 -1.0000  1.0000 )  
               b(2) = (  1.0000  1.0000  1.0000 )  
               b(3) = ( -1.0000  1.0000 -1.0000 )  


     Atoms inside the unit cell: 

     Cartesian axes

     site n.  atom      mass           positions (alat units)
        1     Si  28.0855   tau(    1) = (    0.00000    0.00000    0.00000  )
        2     Si  28.0855   tau(    2) = (   -0.25000    0.25000    0.25000  )

     Computing dynamical matrix for 
                    q = (  -0.1666667   0.1666667  -0.1666667 )
 
      6 Sym.Ops. (no q -> -q+G )


     G cutoff =  736.4420  (  10439 G-vectors)     FFT grid: ( 40, 40, 40)
     number of k points=   364

     PseudoPot. # 1 for Si read from file:
     /fastscratch/tsievers/si_ph_benchmark_images//pseudos/Si.nc.UPF
     MD5 check sum: 9e2d726316af3d4752eea8ab0afbb951
     Pseudo is Norm-conserving + core correction, Zval =  4.0
     Generated using ONCVPSP code by D. R. Hamann
     Using radial grid of 1510 points,  6 beta functions with: 
                l(1) =   0
                l(2) =   0
                l(3) =   1
                l(4) =   1
                l(5) =   2
                l(6) =   2

     Mode symmetry, C_3v (3m)   point group:


     Atomic displacements:
     There are    4 irreducible representations

     Representation     1      1 modes -  To be done

     Representation     2      1 modes -  To be done

     Representation     3      2 modes -  To be done

     Representation     4      2 modes -  To be done



     Alpha used in Ewald sum =   2.8000
     PHONON       :     30.86s CPU   1m14.21s WALL



     Representation #   1 mode #   1

     Self-consistent Calculation

      iter #   1 total cpu time :    74.7 secs   av.it.:   6.6
      thresh= 1.000E-02 alpha_mix =  0.700 |ddv_scf|^2 =  1.552E-03

      iter #   2 total cpu time :    76.2 secs   av.it.:   8.8
      thresh= 3.939E-03 alpha_mix =  0.700 |ddv_scf|^2 =  5.085E-02

      iter #   3 total cpu time :    77.1 secs   av.it.:   7.7
      thresh= 1.000E-02 alpha_mix =  0.700 |ddv_scf|^2 =  4.142E-07

      iter #   4 total cpu time :    78.8 secs   av.it.:   9.1
      thresh= 6.435E-05 alpha_mix =  0.700 |ddv_scf|^2 =  1.356E-08

      iter #   5 total cpu time :    80.0 secs   av.it.:   9.4
      thresh= 1.164E-05 alpha_mix =  0.700 |ddv_scf|^2 =  9.063E-10

      iter #   6 total cpu time :    82.1 secs   av.it.:   8.2
      thresh= 3.010E-06 alpha_mix =  0.700 |ddv_scf|^2 =  1.595E-09

      iter #   7 total cpu time :    84.4 secs   av.it.:   7.9
      thresh= 3.993E-06 alpha_mix =  0.700 |ddv_scf|^2 =  9.334E-11

      iter #   8 total cpu time :    87.7 secs   av.it.:   8.4
      thresh= 9.661E-07 alpha_mix =  0.700 |ddv_scf|^2 =  7.430E-13

      iter #   9 total cpu time :    89.1 secs   av.it.:   8.2
      thresh= 8.620E-08 alpha_mix =  0.700 |ddv_scf|^2 =  1.687E-14

      iter #  10 total cpu time :    91.7 secs   av.it.:   8.5
      thresh= 1.299E-08 alpha_mix =  0.700 |ddv_scf|^2 =  1.532E-15

      iter #  11 total cpu time :    92.6 secs   av.it.:   9.0
      thresh= 3.915E-09 alpha_mix =  0.700 |ddv_scf|^2 =  2.356E-16

     End of self-consistent calculation

     Convergence has been achieved 


     Representation #   2 mode #   2

     Self-consistent Calculation

      iter #   1 total cpu time :   113.7 secs   av.it.:   6.6
      thresh= 1.000E-02 alpha_mix =  0.700 |ddv_scf|^2 =  1.552E-03

      iter #   2 total cpu time :   116.1 secs   av.it.:   8.8
      thresh= 3.939E-03 alpha_mix =  0.700 |ddv_scf|^2 =  5.085E-02

      iter #   3 total cpu time :   118.7 secs   av.it.:   7.7
      thresh= 1.000E-02 alpha_mix =  0.700 |ddv_scf|^2 =  4.142E-07

      iter #   4 total cpu time :   121.6 secs   av.it.:   9.1
      thresh= 6.435E-05 alpha_mix =  0.700 |ddv_scf|^2 =  1.356E-08

      iter #   5 total cpu time :   124.3 secs   av.it.:   9.4
      thresh= 1.164E-05 alpha_mix =  0.700 |ddv_scf|^2 =  9.063E-10

      iter #   6 total cpu time :   126.4 secs   av.it.:   8.2
      thresh= 3.010E-06 alpha_mix =  0.700 |ddv_scf|^2 =  1.595E-09

      iter #   7 total cpu time :   128.6 secs   av.it.:   7.9
      thresh= 3.993E-06 alpha_mix =  0.700 |ddv_scf|^2 =  9.334E-11

      iter #   8 total cpu time :   130.1 secs   av.it.:   8.4
      thresh= 9.661E-07 alpha_mix =  0.700 |ddv_scf|^2 =  7.430E-13

      iter #   9 total cpu time :   131.9 secs   av.it.:   8.2
      thresh= 8.620E-08 alpha_mix =  0.700 |ddv_scf|^2 =  1.687E-14

      iter #  10 total cpu time :   132.7 secs   av.it.:   8.5
      thresh= 1.299E-08 alpha_mix =  0.700 |ddv_scf|^2 =  1.532E-15

      iter #  11 total cpu time :   133.4 secs   av.it.:   9.0
      thresh= 3.915E-09 alpha_mix =  0.700 |ddv_scf|^2 =  2.357E-16

     End of self-consistent calculation

     Convergence has been achieved 


     Representation #   3 modes #   3   4

     Self-consistent Calculation

      iter #   1 total cpu time :   135.4 secs   av.it.:   6.1
      thresh= 1.000E-02 alpha_mix =  0.700 |ddv_scf|^2 =  4.048E-08

      iter #   2 total cpu time :   138.9 secs   av.it.:  11.4
      thresh= 2.012E-05 alpha_mix =  0.700 |ddv_scf|^2 =  1.801E-09

      iter #   3 total cpu time :   141.8 secs   av.it.:  11.3
      thresh= 4.244E-06 alpha_mix =  0.700 |ddv_scf|^2 =  4.704E-11

      iter #   4 total cpu time :   144.4 secs   av.it.:  11.3
      thresh= 6.858E-07 alpha_mix =  0.700 |ddv_scf|^2 =  5.428E-13

      iter #   5 total cpu time :   148.4 secs   av.it.:  11.3
      thresh= 7.367E-08 alpha_mix =  0.700 |ddv_scf|^2 =  1.152E-14

      iter #   6 total cpu time :   149.5 secs   av.it.:  11.6
      thresh= 1.073E-08 alpha_mix =  0.700 |ddv_scf|^2 =  5.232E-17

     End of self-consistent calculation

     Convergence has been achieved 


     Representation #   4 modes #   5   6

     Self-consistent Calculation

      iter #   1 total cpu time :   154.0 secs   av.it.:   6.0
      thresh= 1.000E-02 alpha_mix =  0.700 |ddv_scf|^2 =  4.048E-08

      iter #   2 total cpu time :   156.2 secs   av.it.:  11.3
      thresh= 2.012E-05 alpha_mix =  0.700 |ddv_scf|^2 =  1.802E-09

      iter #   3 total cpu time :   159.8 secs   av.it.:  11.3
      thresh= 4.245E-06 alpha_mix =  0.700 |ddv_scf|^2 =  4.704E-11

      iter #   4 total cpu time :   163.5 secs   av.it.:  11.3
      thresh= 6.859E-07 alpha_mix =  0.700 |ddv_scf|^2 =  5.430E-13

      iter #   5 total cpu time :   166.3 secs   av.it.:  11.3
      thresh= 7.369E-08 alpha_mix =  0.700 |ddv_scf|^2 =  1.154E-14

      iter #   6 total cpu time :   168.4 secs   av.it.:  11.6
      thresh= 1.074E-08 alpha_mix =  0.700 |ddv_scf|^2 =  5.229E-17

     End of self-consistent calculation

     Convergence has been achieved 
 
     Number of q in the star =    8
     List of q in the star:
          1  -0.166666667   0.166666667  -0.166666667
          2   0.166666667   0.166666667   0.166666667
          3  -0.166666667  -0.166666667  -0.166666667
          4   0.166666667  -0.166666667   0.166666667
          5   0.166666667  -0.166666667  -0.166666667
          6   0.166666667   0.166666667  -0.166666667
          7  -0.166666667  -0.166666667   0.166666667
          8  -0.166666667   0.166666667   0.166666667

     Diagonalizing the dynamical matrix

     q = (   -0.166666667   0.166666667  -0.166666667 ) 

 **************************************************************************
     freq (    1) =       2.202847 [THz] =      73.479050 [cm-1]
     freq (    2) =       2.202847 [THz] =      73.479050 [cm-1]
     freq (    3) =       4.748134 [THz] =     158.380696 [cm-1]
     freq (    4) =      15.023923 [THz] =     501.144121 [cm-1]
     freq (    5) =      15.065903 [THz] =     502.544446 [cm-1]
     freq (    6) =      15.065903 [THz] =     502.544446 [cm-1]
 **************************************************************************

     Mode symmetry, C_3v (3m)   point group:

     freq (   1-   2) =         73.5  [cm-1]   --> E    L_3           
     freq (   3-   3) =        158.4  [cm-1]   --> A_1  L_1           
     freq (   4-   4) =        501.1  [cm-1]   --> A_1  L_1           
     freq (   5-   6) =        502.5  [cm-1]   --> E    L_3           

     Calculation of q =   -0.3333333   0.3333333  -0.3333333
 
     Parallelization info
     --------------------
     sticks:   dense  smooth     PW     G-vecs:    dense   smooth      PW
     Min         501     501    156                10436    10436    1917
     Max         502     502    157                10439    10439    1922
     Sum        1003    1003    313                20875    20875    3839
 
     Using Slab Decomposition
 

     Title: 
     default                                                                    


     bravais-lattice index     =            2
     lattice parameter (alat)  =      10.1899  a.u.
     unit-cell volume          =     264.5151 (a.u.)^3
     number of atoms/cell      =            2
     number of atomic types    =            1
     number of electrons       =         8.00
     number of Kohn-Sham states=            4
     kinetic-energy cutoff     =      70.0000  Ry
     charge density cutoff     =     280.0000  Ry
     Exchange-correlation= PW
                           (   1   4   0   0   0   0   0)

     celldm(1)=  10.189905  celldm(2)=   0.000000  celldm(3)=   0.000000
     celldm(4)=   0.000000  celldm(5)=   0.000000  celldm(6)=   0.000000

     crystal axes: (cart. coord. in units of alat)
               a(1) = (  -0.500000   0.000000   0.500000 )  
               a(2) = (   0.000000   0.500000   0.500000 )  
               a(3) = (  -0.500000   0.500000   0.000000 )  

     reciprocal axes: (cart. coord. in units 2 pi/alat)
               b(1) = ( -1.000000 -1.000000  1.000000 )  
               b(2) = (  1.000000  1.000000  1.000000 )  
               b(3) = ( -1.000000  1.000000 -1.000000 )  


     PseudoPot. # 1 for Si read from file:
     /fastscratch/tsievers/si_ph_benchmark_images//pseudos/Si.nc.UPF
     MD5 check sum: 9e2d726316af3d4752eea8ab0afbb951
     Pseudo is Norm-conserving + core correction, Zval =  4.0
     Generated using ONCVPSP code by D. R. Hamann
     Using radial grid of 1510 points,  6 beta functions with: 
                l(1) =   0
                l(2) =   0
                l(3) =   1
                l(4) =   1
                l(5) =   2
                l(6) =   2

     atomic species   valence    mass     pseudopotential
        Si             4.00    28.08550     Si( 1.00)

     48 Sym. Ops., with inversion, found



   Cartesian axes

     site n.     atom                  positions (alat units)
         1           Si  tau(   1) = (   0.0000000   0.0000000   0.0000000  )
         2           Si  tau(   2) = (  -0.2500000   0.2500000   0.2500000  )

     number of k points=   364

     Number of k-points >= 100: set verbosity='high' to print them.

     Dense  grid:    20875 G-vectors     FFT dimensions: (  40,  40,  40)

     Estimated max dynamical RAM per process >       6.41 MB

     Estimated total dynamical RAM >     282.04 MB

     The potential is recalculated from file :
     /fastscratch/tsievers/QE_TMP_DIR/_ph0/si_ph_bench_nimages_2_n_procs_88_0.save/charge-density

     Starting wfcs are    8 atomic wfcs

     Band Structure Calculation
     Davidson diagonalization with overlap

     ethr =  1.25E-10,  avg # of iterations = 12.9

     total cpu time spent up to now is        6.6 secs

     End of band structure calculation

     Number of k-points >= 100: set verbosity='high' to print the bands.

     highest occupied level (ev):     6.1106

     Writing config to output data dir /fastscratch/tsievers/QE_TMP_DIR/_ph0/si_ph_bench_nimages_2_n_procs_88_0.save/

     default                                                                    

     bravais-lattice index     =            2
     lattice parameter (alat)  =      10.1899  a.u.
     unit-cell volume          =     264.5151 (a.u.)^3
     number of atoms/cell      =            2
     number of atomic types    =            1
     kinetic-energy cut-off    =      70.0000  Ry
     charge density cut-off    =     280.0000  Ry
     convergence threshold     =      1.0E-15
     beta                      =       0.7000
     number of iterations used =            4
     Exchange-correlation= PW
                           (   1   4   0   0   0   0   0)


     celldm(1)=   10.18990  celldm(2)=    0.00000  celldm(3)=    0.00000
     celldm(4)=    0.00000  celldm(5)=    0.00000  celldm(6)=    0.00000

     crystal axes: (cart. coord. in units of alat)
               a(1) = ( -0.5000  0.0000  0.5000 )  
               a(2) = (  0.0000  0.5000  0.5000 )  
               a(3) = ( -0.5000  0.5000  0.0000 )  

     reciprocal axes: (cart. coord. in units 2 pi/alat)
               b(1) = ( -1.0000 -1.0000  1.0000 )  
               b(2) = (  1.0000  1.0000  1.0000 )  
               b(3) = ( -1.0000  1.0000 -1.0000 )  


     Atoms inside the unit cell: 

     Cartesian axes

     site n.  atom      mass           positions (alat units)
        1     Si  28.0855   tau(    1) = (    0.00000    0.00000    0.00000  )
        2     Si  28.0855   tau(    2) = (   -0.25000    0.25000    0.25000  )

     Computing dynamical matrix for 
                    q = (  -0.3333333   0.3333333  -0.3333333 )
 
      6 Sym.Ops. (no q -> -q+G )


     G cutoff =  736.4420  (  10439 G-vectors)     FFT grid: ( 40, 40, 40)
     number of k points=   364

     PseudoPot. # 1 for Si read from file:
     /fastscratch/tsievers/si_ph_benchmark_images//pseudos/Si.nc.UPF
     MD5 check sum: 9e2d726316af3d4752eea8ab0afbb951
     Pseudo is Norm-conserving + core correction, Zval =  4.0
     Generated using ONCVPSP code by D. R. Hamann
     Using radial grid of 1510 points,  6 beta functions with: 
                l(1) =   0
                l(2) =   0
                l(3) =   1
                l(4) =   1
                l(5) =   2
                l(6) =   2

     Mode symmetry, C_3v (3m)   point group:


     Atomic displacements:
     There are    4 irreducible representations

     Representation     1      1 modes -  To be done

     Representation     2      1 modes -  To be done

     Representation     3      2 modes -  To be done

     Representation     4      2 modes -  To be done



     Alpha used in Ewald sum =   2.8000
     PHONON       :   1m36.91s CPU   2m52.96s WALL



     Representation #   1 mode #   1

     Self-consistent Calculation

      iter #   1 total cpu time :   173.5 secs   av.it.:   6.5
      thresh= 1.000E-02 alpha_mix =  0.700 |ddv_scf|^2 =  9.826E-05

      iter #   2 total cpu time :   174.8 secs   av.it.:   9.7
      thresh= 9.913E-04 alpha_mix =  0.700 |ddv_scf|^2 =  7.842E-04

      iter #   3 total cpu time :   175.9 secs   av.it.:   8.3
      thresh= 2.800E-03 alpha_mix =  0.700 |ddv_scf|^2 =  1.444E-07

      iter #   4 total cpu time :   177.1 secs   av.it.:   9.8
      thresh= 3.799E-05 alpha_mix =  0.700 |ddv_scf|^2 =  2.930E-09

      iter #   5 total cpu time :   178.5 secs   av.it.:   9.9
      thresh= 5.413E-06 alpha_mix =  0.700 |ddv_scf|^2 =  3.096E-11

      iter #   6 total cpu time :   179.7 secs   av.it.:  10.4
      thresh= 5.564E-07 alpha_mix =  0.700 |ddv_scf|^2 =  3.130E-12

      iter #   7 total cpu time :   181.9 secs   av.it.:  10.3
      thresh= 1.769E-07 alpha_mix =  0.700 |ddv_scf|^2 =  1.996E-12

      iter #   8 total cpu time :   186.1 secs   av.it.:   9.4
      thresh= 1.413E-07 alpha_mix =  0.700 |ddv_scf|^2 =  2.450E-12

      iter #   9 total cpu time :   188.7 secs   av.it.:   8.9
      thresh= 1.565E-07 alpha_mix =  0.700 |ddv_scf|^2 =  2.944E-13

      iter #  10 total cpu time :   191.5 secs   av.it.:   8.9
      thresh= 5.426E-08 alpha_mix =  0.700 |ddv_scf|^2 =  1.694E-15

      iter #  11 total cpu time :   192.1 secs   av.it.:   9.6
      thresh= 4.115E-09 alpha_mix =  0.700 |ddv_scf|^2 =  1.638E-16

     End of self-consistent calculation

     Convergence has been achieved 


     Representation #   2 mode #   2

     Self-consistent Calculation

      iter #   1 total cpu time :   193.3 secs   av.it.:   6.5
      thresh= 1.000E-02 alpha_mix =  0.700 |ddv_scf|^2 =  9.826E-05

      iter #   2 total cpu time :   194.2 secs   av.it.:   9.7
      thresh= 9.913E-04 alpha_mix =  0.700 |ddv_scf|^2 =  7.842E-04

      iter #   3 total cpu time :   195.8 secs   av.it.:   8.3
      thresh= 2.800E-03 alpha_mix =  0.700 |ddv_scf|^2 =  1.444E-07

      iter #   4 total cpu time :   197.0 secs   av.it.:   9.8
      thresh= 3.799E-05 alpha_mix =  0.700 |ddv_scf|^2 =  2.930E-09

      iter #   5 total cpu time :   199.3 secs   av.it.:   9.9
      thresh= 5.413E-06 alpha_mix =  0.700 |ddv_scf|^2 =  3.096E-11

      iter #   6 total cpu time :   200.5 secs   av.it.:  10.4
      thresh= 5.564E-07 alpha_mix =  0.700 |ddv_scf|^2 =  3.130E-12

      iter #   7 total cpu time :   202.5 secs   av.it.:  10.3
      thresh= 1.769E-07 alpha_mix =  0.700 |ddv_scf|^2 =  1.995E-12

      iter #   8 total cpu time :   205.1 secs   av.it.:   9.4
      thresh= 1.412E-07 alpha_mix =  0.700 |ddv_scf|^2 =  2.450E-12

      iter #   9 total cpu time :   207.1 secs   av.it.:   8.9
      thresh= 1.565E-07 alpha_mix =  0.700 |ddv_scf|^2 =  2.943E-13

      iter #  10 total cpu time :   209.4 secs   av.it.:   8.9
      thresh= 5.425E-08 alpha_mix =  0.700 |ddv_scf|^2 =  1.693E-15

      iter #  11 total cpu time :   210.1 secs   av.it.:   9.6
      thresh= 4.114E-09 alpha_mix =  0.700 |ddv_scf|^2 =  1.637E-16

     End of self-consistent calculation

     Convergence has been achieved 


     Representation #   3 modes #   3   4

     Self-consistent Calculation

      iter #   1 total cpu time :   211.7 secs   av.it.:   6.1
      thresh= 1.000E-02 alpha_mix =  0.700 |ddv_scf|^2 =  5.514E-08

      iter #   2 total cpu time :   216.9 secs   av.it.:  11.4
      thresh= 2.348E-05 alpha_mix =  0.700 |ddv_scf|^2 =  3.819E-09

      iter #   3 total cpu time :   220.2 secs   av.it.:  11.2
      thresh= 6.180E-06 alpha_mix =  0.700 |ddv_scf|^2 =  5.530E-11

      iter #   4 total cpu time :   223.0 secs   av.it.:  11.3
      thresh= 7.436E-07 alpha_mix =  0.700 |ddv_scf|^2 =  5.545E-13

      iter #   5 total cpu time :   226.2 secs   av.it.:  11.3
      thresh= 7.446E-08 alpha_mix =  0.700 |ddv_scf|^2 =  1.079E-14

      iter #   6 total cpu time :   227.8 secs   av.it.:  11.5
      thresh= 1.039E-08 alpha_mix =  0.700 |ddv_scf|^2 =  7.356E-17

     End of self-consistent calculation

     Convergence has been achieved 


     Representation #   4 modes #   5   6

     Self-consistent Calculation

      iter #   1 total cpu time :   230.6 secs   av.it.:   6.0
      thresh= 1.000E-02 alpha_mix =  0.700 |ddv_scf|^2 =  5.515E-08

      iter #   2 total cpu time :   234.1 secs   av.it.:  11.3
      thresh= 2.348E-05 alpha_mix =  0.700 |ddv_scf|^2 =  3.823E-09

      iter #   3 total cpu time :   237.5 secs   av.it.:  11.2
      thresh= 6.183E-06 alpha_mix =  0.700 |ddv_scf|^2 =  5.527E-11

      iter #   4 total cpu time :   241.1 secs   av.it.:  11.3
      thresh= 7.435E-07 alpha_mix =  0.700 |ddv_scf|^2 =  5.546E-13

      iter #   5 total cpu time :   243.8 secs   av.it.:  11.3
      thresh= 7.447E-08 alpha_mix =  0.700 |ddv_scf|^2 =  1.079E-14

      iter #   6 total cpu time :   246.9 secs   av.it.:  11.5
      thresh= 1.039E-08 alpha_mix =  0.700 |ddv_scf|^2 =  7.350E-17

     End of self-consistent calculation

     Convergence has been achieved 
 
     Number of q in the star =    8
     List of q in the star:
          1  -0.333333333   0.333333333  -0.333333333
          2   0.333333333   0.333333333   0.333333333
          3  -0.333333333  -0.333333333  -0.333333333
          4   0.333333333  -0.333333333   0.333333333
          5   0.333333333  -0.333333333  -0.333333333
          6   0.333333333   0.333333333  -0.333333333
          7  -0.333333333  -0.333333333   0.333333333
          8  -0.333333333   0.333333333   0.333333333

     Diagonalizing the dynamical matrix

     q = (   -0.333333333   0.333333333  -0.333333333 ) 

 **************************************************************************
     freq (    1) =       3.044173 [THz] =     101.542688 [cm-1]
     freq (    2) =       3.044173 [THz] =     101.542688 [cm-1]
     freq (    3) =       8.747669 [THz] =     291.790825 [cm-1]
     freq (    4) =      13.857052 [THz] =     462.221505 [cm-1]
     freq (    5) =      14.763314 [THz] =     492.451146 [cm-1]
     freq (    6) =      14.763314 [THz] =     492.451146 [cm-1]
 **************************************************************************

     Mode symmetry, C_3v (3m)   point group:

     freq (   1-   2) =        101.5  [cm-1]   --> E    L_3           
     freq (   3-   3) =        291.8  [cm-1]   --> A_1  L_1           
     freq (   4-   4) =        462.2  [cm-1]   --> A_1  L_1           
     freq (   5-   6) =        492.5  [cm-1]   --> E    L_3           

     Calculation of q =    0.5000000  -0.5000000   0.5000000
 
     Parallelization info
     --------------------
     sticks:   dense  smooth     PW     G-vecs:    dense   smooth      PW
     Min         501     501    168                10436    10436    2007
     Max         502     502    169                10439    10439    2008
     Sum        1003    1003    337                20875    20875    4015
 
     Using Slab Decomposition
 

     Title: 
     default                                                                    


     bravais-lattice index     =            2
     lattice parameter (alat)  =      10.1899  a.u.
     unit-cell volume          =     264.5151 (a.u.)^3
     number of atoms/cell      =            2
     number of atomic types    =            1
     number of electrons       =         8.00
     number of Kohn-Sham states=            4
     kinetic-energy cutoff     =      70.0000  Ry
     charge density cutoff     =     280.0000  Ry
     Exchange-correlation= PW
                           (   1   4   0   0   0   0   0)

     celldm(1)=  10.189905  celldm(2)=   0.000000  celldm(3)=   0.000000
     celldm(4)=   0.000000  celldm(5)=   0.000000  celldm(6)=   0.000000

     crystal axes: (cart. coord. in units of alat)
               a(1) = (  -0.500000   0.000000   0.500000 )  
               a(2) = (   0.000000   0.500000   0.500000 )  
               a(3) = (  -0.500000   0.500000   0.000000 )  

     reciprocal axes: (cart. coord. in units 2 pi/alat)
               b(1) = ( -1.000000 -1.000000  1.000000 )  
               b(2) = (  1.000000  1.000000  1.000000 )  
               b(3) = ( -1.000000  1.000000 -1.000000 )  


     PseudoPot. # 1 for Si read from file:
     /fastscratch/tsievers/si_ph_benchmark_images//pseudos/Si.nc.UPF
     MD5 check sum: 9e2d726316af3d4752eea8ab0afbb951
     Pseudo is Norm-conserving + core correction, Zval =  4.0
     Generated using ONCVPSP code by D. R. Hamann
     Using radial grid of 1510 points,  6 beta functions with: 
                l(1) =   0
                l(2) =   0
                l(3) =   1
                l(4) =   1
                l(5) =   2
                l(6) =   2

     atomic species   valence    mass     pseudopotential
        Si             4.00    28.08550     Si( 1.00)

     48 Sym. Ops., with inversion, found



   Cartesian axes

     site n.     atom                  positions (alat units)
         1           Si  tau(   1) = (   0.0000000   0.0000000   0.0000000  )
         2           Si  tau(   2) = (  -0.2500000   0.2500000   0.2500000  )

     number of k points=   182

     Number of k-points >= 100: set verbosity='high' to print them.

     Dense  grid:    20875 G-vectors     FFT dimensions: (  40,  40,  40)

     Estimated max dynamical RAM per process >       6.42 MB

     Estimated total dynamical RAM >     282.68 MB

     The potential is recalculated from file :
     /fastscratch/tsievers/QE_TMP_DIR/_ph0/si_ph_bench_nimages_2_n_procs_88_0.save/charge-density

     Starting wfcs are    8 atomic wfcs

     Band Structure Calculation
     Davidson diagonalization with overlap

     ethr =  1.25E-10,  avg # of iterations = 12.9

     total cpu time spent up to now is        7.5 secs

     End of band structure calculation

     Number of k-points >= 100: set verbosity='high' to print the bands.

     highest occupied level (ev):     6.1106

     Writing config to output data dir /fastscratch/tsievers/QE_TMP_DIR/_ph0/si_ph_bench_nimages_2_n_procs_88_0.save/

     default                                                                    

     bravais-lattice index     =            2
     lattice parameter (alat)  =      10.1899  a.u.
     unit-cell volume          =     264.5151 (a.u.)^3
     number of atoms/cell      =            2
     number of atomic types    =            1
     kinetic-energy cut-off    =      70.0000  Ry
     charge density cut-off    =     280.0000  Ry
     convergence threshold     =      1.0E-15
     beta                      =       0.7000
     number of iterations used =            4
     Exchange-correlation= PW
                           (   1   4   0   0   0   0   0)


     celldm(1)=   10.18990  celldm(2)=    0.00000  celldm(3)=    0.00000
     celldm(4)=    0.00000  celldm(5)=    0.00000  celldm(6)=    0.00000

     crystal axes: (cart. coord. in units of alat)
               a(1) = ( -0.5000  0.0000  0.5000 )  
               a(2) = (  0.0000  0.5000  0.5000 )  
               a(3) = ( -0.5000  0.5000  0.0000 )  

     reciprocal axes: (cart. coord. in units 2 pi/alat)
               b(1) = ( -1.0000 -1.0000  1.0000 )  
               b(2) = (  1.0000  1.0000  1.0000 )  
               b(3) = ( -1.0000  1.0000 -1.0000 )  


     Atoms inside the unit cell: 

     Cartesian axes

     site n.  atom      mass           positions (alat units)
        1     Si  28.0855   tau(    1) = (    0.00000    0.00000    0.00000  )
        2     Si  28.0855   tau(    2) = (   -0.25000    0.25000    0.25000  )

     Computing dynamical matrix for 
                    q = (   0.5000000  -0.5000000   0.5000000 )
 
     13 Sym.Ops. (with q -> -q+G )


     G cutoff =  736.4420  (  10439 G-vectors)     FFT grid: ( 40, 40, 40)
     number of k points=   182

     PseudoPot. # 1 for Si read from file:
     /fastscratch/tsievers/si_ph_benchmark_images//pseudos/Si.nc.UPF
     MD5 check sum: 9e2d726316af3d4752eea8ab0afbb951
     Pseudo is Norm-conserving + core correction, Zval =  4.0
     Generated using ONCVPSP code by D. R. Hamann
     Using radial grid of 1510 points,  6 beta functions with: 
                l(1) =   0
                l(2) =   0
                l(3) =   1
                l(4) =   1
                l(5) =   2
                l(6) =   2


     Atomic displacements:
     There are    4 irreducible representations

     Representation     1      1 modes -  To be done

     Representation     2      1 modes -  To be done

     Representation     3      2 modes -  To be done

     Representation     4      2 modes -  To be done



     Alpha used in Ewald sum =   2.8000
     PHONON       :   2m22.30s CPU   4m13.41s WALL



     Representation #   1 mode #   1

     Self-consistent Calculation

      iter #   1 total cpu time :   253.8 secs   av.it.:   5.8
      thresh= 1.000E-02 alpha_mix =  0.700 |ddv_scf|^2 =  3.144E-06

      iter #   2 total cpu time :   254.5 secs   av.it.:   9.9
      thresh= 1.773E-04 alpha_mix =  0.700 |ddv_scf|^2 =  2.901E-06

      iter #   3 total cpu time :   255.8 secs   av.it.:   9.2
      thresh= 1.703E-04 alpha_mix =  0.700 |ddv_scf|^2 =  3.884E-10

      iter #   4 total cpu time :   256.8 secs   av.it.:  10.1
      thresh= 1.971E-06 alpha_mix =  0.700 |ddv_scf|^2 =  6.688E-12

      iter #   5 total cpu time :   257.5 secs   av.it.:   9.7
      thresh= 2.586E-07 alpha_mix =  0.700 |ddv_scf|^2 =  9.568E-14

      iter #   6 total cpu time :   259.5 secs   av.it.:   9.7
      thresh= 3.093E-08 alpha_mix =  0.700 |ddv_scf|^2 =  1.252E-15

      iter #   7 total cpu time :   260.5 secs   av.it.:   9.8
      thresh= 3.538E-09 alpha_mix =  0.700 |ddv_scf|^2 =  4.277E-18

     End of self-consistent calculation

     Convergence has been achieved 


     Representation #   2 mode #   2

     Self-consistent Calculation

      iter #   1 total cpu time :   261.9 secs   av.it.:   6.7
      thresh= 1.000E-02 alpha_mix =  0.700 |ddv_scf|^2 =  4.802E-05

      iter #   2 total cpu time :   262.9 secs   av.it.:  10.0
      thresh= 6.930E-04 alpha_mix =  0.700 |ddv_scf|^2 =  1.569E-04

      iter #   3 total cpu time :   264.2 secs   av.it.:   9.0
      thresh= 1.253E-03 alpha_mix =  0.700 |ddv_scf|^2 =  9.300E-09

      iter #   4 total cpu time :   265.4 secs   av.it.:   9.7
      thresh= 9.644E-06 alpha_mix =  0.700 |ddv_scf|^2 =  1.946E-10

      iter #   5 total cpu time :   266.9 secs   av.it.:  10.3
      thresh= 1.395E-06 alpha_mix =  0.700 |ddv_scf|^2 =  9.630E-12

      iter #   6 total cpu time :   268.1 secs   av.it.:  10.0
      thresh= 3.103E-07 alpha_mix =  0.700 |ddv_scf|^2 =  2.662E-13

      iter #   7 total cpu time :   268.8 secs   av.it.:   9.4
      thresh= 5.159E-08 alpha_mix =  0.700 |ddv_scf|^2 =  7.419E-17

     End of self-consistent calculation

     Convergence has been achieved 


     Representation #   3 modes #   3   4

     Self-consistent Calculation

      iter #   1 total cpu time :   270.1 secs   av.it.:   6.1
      thresh= 1.000E-02 alpha_mix =  0.700 |ddv_scf|^2 =  1.110E-07

      iter #   2 total cpu time :   272.7 secs   av.it.:  11.2
      thresh= 3.331E-05 alpha_mix =  0.700 |ddv_scf|^2 =  9.408E-09

      iter #   3 total cpu time :   275.6 secs   av.it.:  11.1
      thresh= 9.699E-06 alpha_mix =  0.700 |ddv_scf|^2 =  6.299E-11

      iter #   4 total cpu time :   280.2 secs   av.it.:  11.1
      thresh= 7.936E-07 alpha_mix =  0.700 |ddv_scf|^2 =  7.045E-14

      iter #   5 total cpu time :   281.8 secs   av.it.:  11.3
      thresh= 2.654E-08 alpha_mix =  0.700 |ddv_scf|^2 =  9.258E-16

     End of self-consistent calculation

     Convergence has been achieved 


     Representation #   4 modes #   5   6

     Self-consistent Calculation

      iter #   1 total cpu time :   284.7 secs   av.it.:   5.5
      thresh= 1.000E-02 alpha_mix =  0.700 |ddv_scf|^2 =  1.259E-08

      iter #   2 total cpu time :   287.0 secs   av.it.:  11.2
      thresh= 1.122E-05 alpha_mix =  0.700 |ddv_scf|^2 =  3.301E-10

      iter #   3 total cpu time :   289.9 secs   av.it.:  11.2
      thresh= 1.817E-06 alpha_mix =  0.700 |ddv_scf|^2 =  2.029E-11

      iter #   4 total cpu time :   292.6 secs   av.it.:  11.2
      thresh= 4.505E-07 alpha_mix =  0.700 |ddv_scf|^2 =  8.686E-14

      iter #   5 total cpu time :   294.7 secs   av.it.:  11.1
      thresh= 2.947E-08 alpha_mix =  0.700 |ddv_scf|^2 =  1.388E-15

      iter #   6 total cpu time :   295.6 secs   av.it.:  11.2
      thresh= 3.726E-09 alpha_mix =  0.700 |ddv_scf|^2 =  2.950E-18

     End of self-consistent calculation

     Convergence has been achieved 
 
     Number of q in the star =    4
     List of q in the star:
          1   0.500000000  -0.500000000   0.500000000
          2   0.500000000   0.500000000   0.500000000
          3  -0.500000000   0.500000000   0.500000000
          4   0.500000000   0.500000000  -0.500000000

     Diagonalizing the dynamical matrix

     q = (    0.500000000  -0.500000000   0.500000000 ) 

 **************************************************************************
     freq (    1) =       3.158393 [THz] =     105.352665 [cm-1]
     freq (    2) =       3.158393 [THz] =     105.352665 [cm-1]
     freq (    3) =      11.169000 [THz] =     372.557751 [cm-1]
     freq (    4) =      12.390726 [THz] =     413.310117 [cm-1]
     freq (    5) =      14.704279 [THz] =     490.481941 [cm-1]
     freq (    6) =      14.704279 [THz] =     490.481941 [cm-1]
 **************************************************************************

     Calculation of q =    0.0000000   0.3333333   0.0000000
 
     Parallelization info
     --------------------
     sticks:   dense  smooth     PW     G-vecs:    dense   smooth      PW
     Min         501     501    156                10436    10436    1859
     Max         502     502    157                10439    10439    1860
     Sum        1003    1003    313                20875    20875    3719
 
     Using Slab Decomposition
 

     Title: 
     default                                                                    


     bravais-lattice index     =            2
     lattice parameter (alat)  =      10.1899  a.u.
     unit-cell volume          =     264.5151 (a.u.)^3
     number of atoms/cell      =            2
     number of atomic types    =            1
     number of electrons       =         8.00
     number of Kohn-Sham states=            4
     kinetic-energy cutoff     =      70.0000  Ry
     charge density cutoff     =     280.0000  Ry
     Exchange-correlation= PW
                           (   1   4   0   0   0   0   0)

     celldm(1)=  10.189905  celldm(2)=   0.000000  celldm(3)=   0.000000
     celldm(4)=   0.000000  celldm(5)=   0.000000  celldm(6)=   0.000000

     crystal axes: (cart. coord. in units of alat)
               a(1) = (  -0.500000   0.000000   0.500000 )  
               a(2) = (   0.000000   0.500000   0.500000 )  
               a(3) = (  -0.500000   0.500000   0.000000 )  

     reciprocal axes: (cart. coord. in units 2 pi/alat)
               b(1) = ( -1.000000 -1.000000  1.000000 )  
               b(2) = (  1.000000  1.000000  1.000000 )  
               b(3) = ( -1.000000  1.000000 -1.000000 )  


     PseudoPot. # 1 for Si read from file:
     /fastscratch/tsievers/si_ph_benchmark_images//pseudos/Si.nc.UPF
     MD5 check sum: 9e2d726316af3d4752eea8ab0afbb951
     Pseudo is Norm-conserving + core correction, Zval =  4.0
     Generated using ONCVPSP code by D. R. Hamann
     Using radial grid of 1510 points,  6 beta functions with: 
                l(1) =   0
                l(2) =   0
                l(3) =   1
                l(4) =   1
                l(5) =   2
                l(6) =   2

     atomic species   valence    mass     pseudopotential
        Si             4.00    28.08550     Si( 1.00)

     48 Sym. Ops., with inversion, found



   Cartesian axes

     site n.     atom                  positions (alat units)
         1           Si  tau(   1) = (   0.0000000   0.0000000   0.0000000  )
         2           Si  tau(   2) = (  -0.2500000   0.2500000   0.2500000  )

     number of k points=   252

     Number of k-points >= 100: set verbosity='high' to print them.

     Dense  grid:    20875 G-vectors     FFT dimensions: (  40,  40,  40)

     Estimated max dynamical RAM per process >       6.40 MB

     Estimated total dynamical RAM >     281.52 MB

     The potential is recalculated from file :
     /fastscratch/tsievers/QE_TMP_DIR/_ph0/si_ph_bench_nimages_2_n_procs_88_0.save/charge-density

     Starting wfcs are    8 atomic wfcs

     Band Structure Calculation
     Davidson diagonalization with overlap

     ethr =  1.25E-10,  avg # of iterations = 12.8

     total cpu time spent up to now is        8.4 secs

     End of band structure calculation

     Number of k-points >= 100: set verbosity='high' to print the bands.

     highest occupied level (ev):     6.1106

     Writing config to output data dir /fastscratch/tsievers/QE_TMP_DIR/_ph0/si_ph_bench_nimages_2_n_procs_88_0.save/

     default                                                                    

     bravais-lattice index     =            2
     lattice parameter (alat)  =      10.1899  a.u.
     unit-cell volume          =     264.5151 (a.u.)^3
     number of atoms/cell      =            2
     number of atomic types    =            1
     kinetic-energy cut-off    =      70.0000  Ry
     charge density cut-off    =     280.0000  Ry
     convergence threshold     =      1.0E-15
     beta                      =       0.7000
     number of iterations used =            4
     Exchange-correlation= PW
                           (   1   4   0   0   0   0   0)


     celldm(1)=   10.18990  celldm(2)=    0.00000  celldm(3)=    0.00000
     celldm(4)=    0.00000  celldm(5)=    0.00000  celldm(6)=    0.00000

     crystal axes: (cart. coord. in units of alat)
               a(1) = ( -0.5000  0.0000  0.5000 )  
               a(2) = (  0.0000  0.5000  0.5000 )  
               a(3) = ( -0.5000  0.5000  0.0000 )  

     reciprocal axes: (cart. coord. in units 2 pi/alat)
               b(1) = ( -1.0000 -1.0000  1.0000 )  
               b(2) = (  1.0000  1.0000  1.0000 )  
               b(3) = ( -1.0000  1.0000 -1.0000 )  


     Atoms inside the unit cell: 

     Cartesian axes

     site n.  atom      mass           positions (alat units)
        1     Si  28.0855   tau(    1) = (    0.00000    0.00000    0.00000  )
        2     Si  28.0855   tau(    2) = (   -0.25000    0.25000    0.25000  )

     Computing dynamical matrix for 
                    q = (   0.0000000   0.3333333   0.0000000 )
 
      8 Sym.Ops. (no q -> -q+G )


     G cutoff =  736.4420  (  10439 G-vectors)     FFT grid: ( 40, 40, 40)
     number of k points=   252

     PseudoPot. # 1 for Si read from file:
     /fastscratch/tsievers/si_ph_benchmark_images//pseudos/Si.nc.UPF
     MD5 check sum: 9e2d726316af3d4752eea8ab0afbb951
     Pseudo is Norm-conserving + core correction, Zval =  4.0
     Generated using ONCVPSP code by D. R. Hamann
     Using radial grid of 1510 points,  6 beta functions with: 
                l(1) =   0
                l(2) =   0
                l(3) =   1
                l(4) =   1
                l(5) =   2
                l(6) =   2

     Mode symmetry, C_4v (4mm)  point group:


     Atomic displacements:
     There are    4 irreducible representations

     Representation     1      1 modes -  To be done

     Representation     2      1 modes -  To be done

     Representation     3      2 modes -  To be done

     Representation     4      2 modes -  To be done



     Alpha used in Ewald sum =   2.8000
     PHONON       :   2m48.22s CPU   4m59.94s WALL



     Representation #   1 mode #   1

     Self-consistent Calculation

      iter #   1 total cpu time :   300.8 secs   av.it.:   6.8
      thresh= 1.000E-02 alpha_mix =  0.700 |ddv_scf|^2 =  2.084E-03

      iter #   2 total cpu time :   302.1 secs   av.it.:   9.1
      thresh= 4.565E-03 alpha_mix =  0.700 |ddv_scf|^2 =  6.356E-02

      iter #   3 total cpu time :   303.8 secs   av.it.:   8.0
      thresh= 1.000E-02 alpha_mix =  0.700 |ddv_scf|^2 =  5.851E-08

      iter #   4 total cpu time :   305.4 secs   av.it.:   9.0
      thresh= 2.419E-05 alpha_mix =  0.700 |ddv_scf|^2 =  2.748E-09

      iter #   5 total cpu time :   307.1 secs   av.it.:   8.6
      thresh= 5.242E-06 alpha_mix =  0.700 |ddv_scf|^2 =  9.008E-10

      iter #   6 total cpu time :   307.9 secs   av.it.:   8.1
      thresh= 3.001E-06 alpha_mix =  0.700 |ddv_scf|^2 =  1.175E-12

      iter #   7 total cpu time :   309.1 secs   av.it.:   8.4
      thresh= 1.084E-07 alpha_mix =  0.700 |ddv_scf|^2 =  2.865E-14

      iter #   8 total cpu time :   309.8 secs   av.it.:   8.3
      thresh= 1.693E-08 alpha_mix =  0.700 |ddv_scf|^2 =  3.399E-16

     End of self-consistent calculation

     Convergence has been achieved 


     Representation #   2 mode #   2

     Self-consistent Calculation

      iter #   1 total cpu time :   313.0 secs   av.it.:   5.9
      thresh= 1.000E-02 alpha_mix =  0.700 |ddv_scf|^2 =  3.182E-07

      iter #   2 total cpu time :   314.1 secs   av.it.:  10.4
      thresh= 5.641E-05 alpha_mix =  0.700 |ddv_scf|^2 =  5.145E-08

      iter #   3 total cpu time :   314.9 secs   av.it.:  10.2
      thresh= 2.268E-05 alpha_mix =  0.700 |ddv_scf|^2 =  6.508E-10

      iter #   4 total cpu time :   316.3 secs   av.it.:  10.4
      thresh= 2.551E-06 alpha_mix =  0.700 |ddv_scf|^2 =  2.703E-11

      iter #   5 total cpu time :   318.0 secs   av.it.:  10.3
      thresh= 5.199E-07 alpha_mix =  0.700 |ddv_scf|^2 =  6.157E-14

      iter #   6 total cpu time :   320.0 secs   av.it.:  10.4
      thresh= 2.481E-08 alpha_mix =  0.700 |ddv_scf|^2 =  1.230E-15

      iter #   7 total cpu time :   321.0 secs   av.it.:  10.4
      thresh= 3.507E-09 alpha_mix =  0.700 |ddv_scf|^2 =  2.872E-17

     End of self-consistent calculation

     Convergence has been achieved 


     Representation #   3 modes #   3   4

     Self-consistent Calculation

      iter #   1 total cpu time :   322.8 secs   av.it.:   6.1
      thresh= 1.000E-02 alpha_mix =  0.700 |ddv_scf|^2 =  5.759E-08

      iter #   2 total cpu time :   325.8 secs   av.it.:  11.3
      thresh= 2.400E-05 alpha_mix =  0.700 |ddv_scf|^2 =  5.250E-09

      iter #   3 total cpu time :   328.6 secs   av.it.:  11.1
      thresh= 7.245E-06 alpha_mix =  0.700 |ddv_scf|^2 =  6.118E-11

      iter #   4 total cpu time :   331.4 secs   av.it.:  11.3
      thresh= 7.822E-07 alpha_mix =  0.700 |ddv_scf|^2 =  6.882E-13

      iter #   5 total cpu time :   334.8 secs   av.it.:  11.2
      thresh= 8.296E-08 alpha_mix =  0.700 |ddv_scf|^2 =  1.142E-14

      iter #   6 total cpu time :   336.1 secs   av.it.:  11.5
      thresh= 1.069E-08 alpha_mix =  0.700 |ddv_scf|^2 =  4.653E-17

     End of self-consistent calculation

     Convergence has been achieved 


     Representation #   4 modes #   5   6

     Self-consistent Calculation

      iter #   1 total cpu time :   341.8 secs   av.it.:   6.0
      thresh= 1.000E-02 alpha_mix =  0.700 |ddv_scf|^2 =  7.592E-08

      iter #   2 total cpu time :   344.0 secs   av.it.:  11.2
      thresh= 2.755E-05 alpha_mix =  0.700 |ddv_scf|^2 =  7.159E-09

      iter #   3 total cpu time :   346.4 secs   av.it.:  11.0
      thresh= 8.461E-06 alpha_mix =  0.700 |ddv_scf|^2 =  6.477E-11

      iter #   4 total cpu time :   349.2 secs   av.it.:  11.2
      thresh= 8.048E-07 alpha_mix =  0.700 |ddv_scf|^2 =  4.403E-13

      iter #   5 total cpu time :   352.5 secs   av.it.:  11.1
      thresh= 6.635E-08 alpha_mix =  0.700 |ddv_scf|^2 =  1.045E-14

      iter #   6 total cpu time :   353.5 secs   av.it.:  11.5
      thresh= 1.022E-08 alpha_mix =  0.700 |ddv_scf|^2 =  4.428E-17

     End of self-consistent calculation

     Convergence has been achieved 
 
     Number of q in the star =    6
     List of q in the star:
          1   0.000000000   0.333333333   0.000000000
          2   0.333333333   0.000000000   0.000000000
          3   0.000000000   0.000000000   0.333333333
          4   0.000000000  -0.333333333   0.000000000
          5  -0.333333333   0.000000000   0.000000000
          6   0.000000000   0.000000000  -0.333333333

     Diagonalizing the dynamical matrix

     q = (    0.000000000   0.333333333   0.000000000 ) 

 **************************************************************************
     freq (    1) =       2.948525 [THz] =      98.352200 [cm-1]
     freq (    2) =       2.948525 [THz] =      98.352200 [cm-1]
     freq (    3) =       4.953374 [THz] =     165.226787 [cm-1]
     freq (    4) =      14.670292 [THz] =     489.348255 [cm-1]
     freq (    5) =      14.670292 [THz] =     489.348255 [cm-1]
     freq (    6) =      15.143139 [THz] =     505.120736 [cm-1]
 **************************************************************************

     Mode symmetry, C_4v (4mm)  point group:

     freq (   1-   2) =         98.4  [cm-1]   --> E    G_5 D_5       
     freq (   3-   3) =        165.2  [cm-1]   --> A_1  G_1 D_1       
     freq (   4-   5) =        489.3  [cm-1]   --> E    G_5 D_5       
     freq (   6-   6) =        505.1  [cm-1]   --> B_2  G_4 D_2'      

     Calculation of q =   -0.1666667   0.5000000  -0.1666667
 
     Parallelization info
     --------------------
     sticks:   dense  smooth     PW     G-vecs:    dense   smooth      PW
     Min         501     501    156                10436    10436    1917
     Max         502     502    157                10439    10439    1922
     Sum        1003    1003    313                20875    20875    3839
 
     Using Slab Decomposition
 

     Title: 
     default                                                                    


     bravais-lattice index     =            2
     lattice parameter (alat)  =      10.1899  a.u.
     unit-cell volume          =     264.5151 (a.u.)^3
     number of atoms/cell      =            2
     number of atomic types    =            1
     number of electrons       =         8.00
     number of Kohn-Sham states=            4
     kinetic-energy cutoff     =      70.0000  Ry
     charge density cutoff     =     280.0000  Ry
     Exchange-correlation= PW
                           (   1   4   0   0   0   0   0)

     celldm(1)=  10.189905  celldm(2)=   0.000000  celldm(3)=   0.000000
     celldm(4)=   0.000000  celldm(5)=   0.000000  celldm(6)=   0.000000

     crystal axes: (cart. coord. in units of alat)
               a(1) = (  -0.500000   0.000000   0.500000 )  
               a(2) = (   0.000000   0.500000   0.500000 )  
               a(3) = (  -0.500000   0.500000   0.000000 )  

     reciprocal axes: (cart. coord. in units 2 pi/alat)
               b(1) = ( -1.000000 -1.000000  1.000000 )  
               b(2) = (  1.000000  1.000000  1.000000 )  
               b(3) = ( -1.000000  1.000000 -1.000000 )  


     PseudoPot. # 1 for Si read from file:
     /fastscratch/tsievers/si_ph_benchmark_images//pseudos/Si.nc.UPF
     MD5 check sum: 9e2d726316af3d4752eea8ab0afbb951
     Pseudo is Norm-conserving + core correction, Zval =  4.0
     Generated using ONCVPSP code by D. R. Hamann
     Using radial grid of 1510 points,  6 beta functions with: 
                l(1) =   0
                l(2) =   0
                l(3) =   1
                l(4) =   1
                l(5) =   2
                l(6) =   2

     atomic species   valence    mass     pseudopotential
        Si             4.00    28.08550     Si( 1.00)

     48 Sym. Ops., with inversion, found



   Cartesian axes

     site n.     atom                  positions (alat units)
         1           Si  tau(   1) = (   0.0000000   0.0000000   0.0000000  )
         2           Si  tau(   2) = (  -0.2500000   0.2500000   0.2500000  )

     number of k points=   936

     Number of k-points >= 100: set verbosity='high' to print them.

     Dense  grid:    20875 G-vectors     FFT dimensions: (  40,  40,  40)

     Estimated max dynamical RAM per process >       6.41 MB

     Estimated total dynamical RAM >     282.01 MB

     The potential is recalculated from file :
     /fastscratch/tsievers/QE_TMP_DIR/_ph0/si_ph_bench_nimages_2_n_procs_88_0.save/charge-density

     Starting wfcs are    8 atomic wfcs

     Band Structure Calculation
     Davidson diagonalization with overlap

     ethr =  1.25E-10,  avg # of iterations = 12.8

     total cpu time spent up to now is       14.4 secs

     End of band structure calculation

     Number of k-points >= 100: set verbosity='high' to print the bands.

     highest occupied level (ev):     6.1106

     Writing config to output data dir /fastscratch/tsievers/QE_TMP_DIR/_ph0/si_ph_bench_nimages_2_n_procs_88_0.save/

     default                                                                    

     bravais-lattice index     =            2
     lattice parameter (alat)  =      10.1899  a.u.
     unit-cell volume          =     264.5151 (a.u.)^3
     number of atoms/cell      =            2
     number of atomic types    =            1
     kinetic-energy cut-off    =      70.0000  Ry
     charge density cut-off    =     280.0000  Ry
     convergence threshold     =      1.0E-15
     beta                      =       0.7000
     number of iterations used =            4
     Exchange-correlation= PW
                           (   1   4   0   0   0   0   0)


     celldm(1)=   10.18990  celldm(2)=    0.00000  celldm(3)=    0.00000
     celldm(4)=    0.00000  celldm(5)=    0.00000  celldm(6)=    0.00000

     crystal axes: (cart. coord. in units of alat)
               a(1) = ( -0.5000  0.0000  0.5000 )  
               a(2) = (  0.0000  0.5000  0.5000 )  
               a(3) = ( -0.5000  0.5000  0.0000 )  

     reciprocal axes: (cart. coord. in units 2 pi/alat)
               b(1) = ( -1.0000 -1.0000  1.0000 )  
               b(2) = (  1.0000  1.0000  1.0000 )  
               b(3) = ( -1.0000  1.0000 -1.0000 )  


     Atoms inside the unit cell: 

     Cartesian axes

     site n.  atom      mass           positions (alat units)
        1     Si  28.0855   tau(    1) = (    0.00000    0.00000    0.00000  )
        2     Si  28.0855   tau(    2) = (   -0.25000    0.25000    0.25000  )

     Computing dynamical matrix for 
                    q = (  -0.1666667   0.5000000  -0.1666667 )
 
      2 Sym.Ops. (no q -> -q+G )


     G cutoff =  736.4420  (  10439 G-vectors)     FFT grid: ( 40, 40, 40)
     number of k points=   936

     PseudoPot. # 1 for Si read from file:
     /fastscratch/tsievers/si_ph_benchmark_images//pseudos/Si.nc.UPF
     MD5 check sum: 9e2d726316af3d4752eea8ab0afbb951
     Pseudo is Norm-conserving + core correction, Zval =  4.0
     Generated using ONCVPSP code by D. R. Hamann
     Using radial grid of 1510 points,  6 beta functions with: 
                l(1) =   0
                l(2) =   0
                l(3) =   1
                l(4) =   1
                l(5) =   2
                l(6) =   2

     Mode symmetry, C_s (m)     point group:


     Atomic displacements:
     There are    6 irreducible representations

     Representation     1      1 modes -  To be done

     Representation     2      1 modes -  To be done

     Representation     3      1 modes -  To be done

     Representation     4      1 modes -  To be done

     Representation     5      1 modes -  To be done

     Representation     6      1 modes -  To be done



     Alpha used in Ewald sum =   2.8000
     PHONON       :   3m23.43s CPU   6m 3.44s WALL



     Representation #   1 mode #   1

     Self-consistent Calculation

      iter #   1 total cpu time :   365.0 secs   av.it.:   6.7
      thresh= 1.000E-02 alpha_mix =  0.700 |ddv_scf|^2 =  1.192E-04

      iter #   2 total cpu time :   366.8 secs   av.it.:   9.8
      thresh= 1.092E-03 alpha_mix =  0.700 |ddv_scf|^2 =  1.301E-03

      iter #   3 total cpu time :   369.9 secs   av.it.:   8.3
      thresh= 3.606E-03 alpha_mix =  0.700 |ddv_scf|^2 =  1.137E-07

      iter #   4 total cpu time :   371.4 secs   av.it.:  10.3
      thresh= 3.373E-05 alpha_mix =  0.700 |ddv_scf|^2 =  4.975E-09

      iter #   5 total cpu time :   373.7 secs   av.it.:  10.1
      thresh= 7.054E-06 alpha_mix =  0.700 |ddv_scf|^2 =  5.307E-11

      iter #   6 total cpu time :   375.8 secs   av.it.:  10.5
      thresh= 7.285E-07 alpha_mix =  0.700 |ddv_scf|^2 =  6.539E-12

      iter #   7 total cpu time :   379.5 secs   av.it.:  10.3
      thresh= 2.557E-07 alpha_mix =  0.700 |ddv_scf|^2 =  3.122E-13

      iter #   8 total cpu time :   382.5 secs   av.it.:  10.0
      thresh= 5.587E-08 alpha_mix =  0.700 |ddv_scf|^2 =  3.184E-12

      iter #   9 total cpu time :   385.0 secs   av.it.:   8.3
      thresh= 1.784E-07 alpha_mix =  0.700 |ddv_scf|^2 =  5.705E-15

      iter #  10 total cpu time :   387.0 secs   av.it.:   9.6
      thresh= 7.553E-09 alpha_mix =  0.700 |ddv_scf|^2 =  3.834E-15

      iter #  11 total cpu time :   388.3 secs   av.it.:   8.9
      thresh= 6.192E-09 alpha_mix =  0.700 |ddv_scf|^2 =  2.681E-17

     End of self-consistent calculation

     Convergence has been achieved 


     Representation #   2 mode #   2

     Self-consistent Calculation

      iter #   1 total cpu time :   390.5 secs   av.it.:   6.5
      thresh= 1.000E-02 alpha_mix =  0.700 |ddv_scf|^2 =  7.780E-05

      iter #   2 total cpu time :   393.1 secs   av.it.:   9.9
      thresh= 8.820E-04 alpha_mix =  0.700 |ddv_scf|^2 =  8.352E-04

      iter #   3 total cpu time :   396.4 secs   av.it.:   8.3
      thresh= 2.890E-03 alpha_mix =  0.700 |ddv_scf|^2 =  7.659E-08

      iter #   4 total cpu time :   401.0 secs   av.it.:  10.3
      thresh= 2.767E-05 alpha_mix =  0.700 |ddv_scf|^2 =  3.952E-09

      iter #   5 total cpu time :   406.5 secs   av.it.:  10.1
      thresh= 6.286E-06 alpha_mix =  0.700 |ddv_scf|^2 =  9.340E-11

      iter #   6 total cpu time :   409.6 secs   av.it.:  10.1
      thresh= 9.664E-07 alpha_mix =  0.700 |ddv_scf|^2 =  6.229E-12

      iter #   7 total cpu time :   412.1 secs   av.it.:  10.3
      thresh= 2.496E-07 alpha_mix =  0.700 |ddv_scf|^2 =  1.625E-12

      iter #   8 total cpu time :   414.9 secs   av.it.:   9.7
      thresh= 1.275E-07 alpha_mix =  0.700 |ddv_scf|^2 =  5.932E-12

      iter #   9 total cpu time :   417.8 secs   av.it.:   8.6
      thresh= 2.436E-07 alpha_mix =  0.700 |ddv_scf|^2 =  1.207E-13

      iter #  10 total cpu time :   419.9 secs   av.it.:   9.3
      thresh= 3.474E-08 alpha_mix =  0.700 |ddv_scf|^2 =  8.517E-15

      iter #  11 total cpu time :   421.2 secs   av.it.:   9.6
      thresh= 9.229E-09 alpha_mix =  0.700 |ddv_scf|^2 =  1.824E-16

     End of self-consistent calculation

     Convergence has been achieved 


     Representation #   3 mode #   3

     Self-consistent Calculation

      iter #   1 total cpu time :   423.9 secs   av.it.:   6.4
      thresh= 1.000E-02 alpha_mix =  0.700 |ddv_scf|^2 =  5.668E-05

      iter #   2 total cpu time :   427.1 secs   av.it.:   9.9
      thresh= 7.529E-04 alpha_mix =  0.700 |ddv_scf|^2 =  6.226E-04

      iter #   3 total cpu time :   430.1 secs   av.it.:   8.3
      thresh= 2.495E-03 alpha_mix =  0.700 |ddv_scf|^2 =  8.761E-08

      iter #   4 total cpu time :   431.5 secs   av.it.:  10.2
      thresh= 2.960E-05 alpha_mix =  0.700 |ddv_scf|^2 =  2.885E-09

      iter #   5 total cpu time :   434.1 secs   av.it.:  10.1
      thresh= 5.371E-06 alpha_mix =  0.700 |ddv_scf|^2 =  8.886E-11

      iter #   6 total cpu time :   436.5 secs   av.it.:  10.4
      thresh= 9.426E-07 alpha_mix =  0.700 |ddv_scf|^2 =  3.529E-12

      iter #   7 total cpu time :   438.1 secs   av.it.:  10.5
      thresh= 1.879E-07 alpha_mix =  0.700 |ddv_scf|^2 =  1.940E-13

      iter #   8 total cpu time :   440.1 secs   av.it.:  10.0
      thresh= 4.404E-08 alpha_mix =  0.700 |ddv_scf|^2 =  1.279E-12

      iter #   9 total cpu time :   442.5 secs   av.it.:   8.5
      thresh= 1.131E-07 alpha_mix =  0.700 |ddv_scf|^2 =  1.067E-14

      iter #  10 total cpu time :   444.8 secs   av.it.:   9.6
      thresh= 1.033E-08 alpha_mix =  0.700 |ddv_scf|^2 =  2.146E-14

      iter #  11 total cpu time :   446.3 secs   av.it.:   8.7
      thresh= 1.465E-08 alpha_mix =  0.700 |ddv_scf|^2 =  9.290E-17

     End of self-consistent calculation

     Convergence has been achieved 


     Representation #   4 mode #   4

     Self-consistent Calculation

      iter #   1 total cpu time :   449.6 secs   av.it.:   6.2
      thresh= 1.000E-02 alpha_mix =  0.700 |ddv_scf|^2 =  1.528E-05

      iter #   2 total cpu time :   451.3 secs   av.it.:  10.0
      thresh= 3.909E-04 alpha_mix =  0.700 |ddv_scf|^2 =  1.575E-04

      iter #   3 total cpu time :   453.5 secs   av.it.:   8.3
      thresh= 1.255E-03 alpha_mix =  0.700 |ddv_scf|^2 =  6.506E-08

      iter #   4 total cpu time :   455.9 secs   av.it.:  10.2
      thresh= 2.551E-05 alpha_mix =  0.700 |ddv_scf|^2 =  1.659E-09

      iter #   5 total cpu time :   458.6 secs   av.it.:  10.2
      thresh= 4.073E-06 alpha_mix =  0.700 |ddv_scf|^2 =  8.267E-11

      iter #   6 total cpu time :   460.9 secs   av.it.:  10.5
      thresh= 9.092E-07 alpha_mix =  0.700 |ddv_scf|^2 =  7.281E-12

      iter #   7 total cpu time :   463.6 secs   av.it.:  10.2
      thresh= 2.698E-07 alpha_mix =  0.700 |ddv_scf|^2 =  1.484E-12

      iter #   8 total cpu time :   468.8 secs   av.it.:   9.7
      thresh= 1.218E-07 alpha_mix =  0.700 |ddv_scf|^2 =  5.909E-12

      iter #   9 total cpu time :   470.7 secs   av.it.:   8.5
      thresh= 2.431E-07 alpha_mix =  0.700 |ddv_scf|^2 =  1.282E-13

      iter #  10 total cpu time :   472.4 secs   av.it.:   9.3
      thresh= 3.581E-08 alpha_mix =  0.700 |ddv_scf|^2 =  9.329E-15

      iter #  11 total cpu time :   473.9 secs   av.it.:   9.7
      thresh= 9.659E-09 alpha_mix =  0.700 |ddv_scf|^2 =  4.411E-16

     End of self-consistent calculation

     Convergence has been achieved 


     Representation #   5 mode #   5

     Self-consistent Calculation

      iter #   1 total cpu time :   476.2 secs   av.it.:   6.0
      thresh= 1.000E-02 alpha_mix =  0.700 |ddv_scf|^2 =  3.839E-07

      iter #   2 total cpu time :   477.7 secs   av.it.:  10.4
      thresh= 6.196E-05 alpha_mix =  0.700 |ddv_scf|^2 =  5.268E-08

      iter #   3 total cpu time :   480.7 secs   av.it.:  10.1
      thresh= 2.295E-05 alpha_mix =  0.700 |ddv_scf|^2 =  2.836E-10

      iter #   4 total cpu time :   483.2 secs   av.it.:  10.3
      thresh= 1.684E-06 alpha_mix =  0.700 |ddv_scf|^2 =  1.615E-12

      iter #   5 total cpu time :   484.7 secs   av.it.:  10.3
      thresh= 1.271E-07 alpha_mix =  0.700 |ddv_scf|^2 =  3.402E-14

      iter #   6 total cpu time :   485.9 secs   av.it.:  10.6
      thresh= 1.845E-08 alpha_mix =  0.700 |ddv_scf|^2 =  2.088E-16

     End of self-consistent calculation

     Convergence has been achieved 


     Representation #   6 mode #   6

     Self-consistent Calculation

      iter #   1 total cpu time :   488.8 secs   av.it.:   6.0
      thresh= 1.000E-02 alpha_mix =  0.700 |ddv_scf|^2 =  3.839E-07

      iter #   2 total cpu time :   493.6 secs   av.it.:  10.4
      thresh= 6.196E-05 alpha_mix =  0.700 |ddv_scf|^2 =  5.269E-08

      iter #   3 total cpu time :   495.0 secs   av.it.:  10.1
      thresh= 2.295E-05 alpha_mix =  0.700 |ddv_scf|^2 =  2.835E-10

      iter #   4 total cpu time :   496.8 secs   av.it.:  10.3
      thresh= 1.684E-06 alpha_mix =  0.700 |ddv_scf|^2 =  1.615E-12

      iter #   5 total cpu time :   499.0 secs   av.it.:  10.3
      thresh= 1.271E-07 alpha_mix =  0.700 |ddv_scf|^2 =  3.401E-14

      iter #   6 total cpu time :   501.2 secs   av.it.:  10.6
      thresh= 1.844E-08 alpha_mix =  0.700 |ddv_scf|^2 =  2.087E-16

     End of self-consistent calculation

     Convergence has been achieved 
 
     Number of q in the star =   24
     List of q in the star:
          1  -0.166666667   0.500000000  -0.166666667
          2   0.166666667   0.500000000   0.166666667
          3  -0.166666667   0.500000000   0.166666667
          4   0.166666667   0.500000000  -0.166666667
          5   0.500000000  -0.166666667   0.166666667
          6   0.166666667  -0.166666667   0.500000000
          7  -0.166666667  -0.500000000  -0.166666667
          8   0.166666667  -0.500000000  -0.166666667
          9  -0.166666667  -0.500000000   0.166666667
         10   0.500000000  -0.166666667  -0.166666667
         11  -0.500000000  -0.166666667   0.166666667
         12   0.500000000   0.166666667   0.166666667
         13  -0.166666667   0.166666667  -0.500000000
         14  -0.166666667  -0.166666667   0.500000000
         15   0.166666667   0.166666667   0.500000000
         16   0.166666667  -0.166666667  -0.500000000
         17  -0.500000000   0.166666667  -0.166666667
         18  -0.500000000  -0.166666667  -0.166666667
         19   0.166666667  -0.500000000   0.166666667
         20   0.500000000   0.166666667  -0.166666667
         21   0.166666667   0.166666667  -0.500000000
         22  -0.166666667  -0.166666667  -0.500000000
         23  -0.500000000   0.166666667   0.166666667
         24  -0.166666667   0.166666667   0.500000000

     Diagonalizing the dynamical matrix

     q = (   -0.166666667   0.500000000  -0.166666667 ) 

 **************************************************************************
     freq (    1) =       3.594222 [THz] =     119.890338 [cm-1]
     freq (    2) =       4.477766 [THz] =     149.362197 [cm-1]
     freq (    3) =       7.460688 [THz] =     248.861754 [cm-1]
     freq (    4) =      13.865519 [THz] =     462.503926 [cm-1]
     freq (    5) =      14.341240 [THz] =     478.372268 [cm-1]
     freq (    6) =      14.653498 [THz] =     488.788082 [cm-1]
 **************************************************************************

     Mode symmetry, C_s (m)     point group:

     freq (   1-   1) =        119.9  [cm-1]   --> A''                
     freq (   2-   2) =        149.4  [cm-1]   --> A'                 
     freq (   3-   3) =        248.9  [cm-1]   --> A'                 
     freq (   4-   4) =        462.5  [cm-1]   --> A'                 
     freq (   5-   5) =        478.4  [cm-1]   --> A''                
     freq (   6-   6) =        488.8  [cm-1]   --> A'                 

     Calculation of q =    0.6666667  -0.3333333   0.6666667
 
     Parallelization info
     --------------------
     sticks:   dense  smooth     PW     G-vecs:    dense   smooth      PW
     Min         501     501    174                10436    10436    2139
     Max         502     502    175                10439    10439    2140
     Sum        1003    1003    349                20875    20875    4279
 
     Using Slab Decomposition
 

     Title: 
     default                                                                    


     bravais-lattice index     =            2
     lattice parameter (alat)  =      10.1899  a.u.
     unit-cell volume          =     264.5151 (a.u.)^3
     number of atoms/cell      =            2
     number of atomic types    =            1
     number of electrons       =         8.00
     number of Kohn-Sham states=            4
     kinetic-energy cutoff     =      70.0000  Ry
     charge density cutoff     =     280.0000  Ry
     Exchange-correlation= PW
                           (   1   4   0   0   0   0   0)

     celldm(1)=  10.189905  celldm(2)=   0.000000  celldm(3)=   0.000000
[...]

      iter #   5 total cpu time :   749.5 secs   av.it.:  10.4
      thresh= 1.397E-07 alpha_mix =  0.700 |ddv_scf|^2 =  3.894E-14

      iter #   6 total cpu time :   750.6 secs   av.it.:  10.6
      thresh= 1.973E-08 alpha_mix =  0.700 |ddv_scf|^2 =  2.547E-16

     End of self-consistent calculation

     Convergence has been achieved 


     Representation #   6 mode #   6

     Self-consistent Calculation

      iter #   1 total cpu time :   752.1 secs   av.it.:   6.0
      thresh= 1.000E-02 alpha_mix =  0.700 |ddv_scf|^2 =  2.719E-07

      iter #   2 total cpu time :   753.5 secs   av.it.:  10.5
      thresh= 5.214E-05 alpha_mix =  0.700 |ddv_scf|^2 =  2.627E-08

      iter #   3 total cpu time :   755.3 secs   av.it.:  10.2
      thresh= 1.621E-05 alpha_mix =  0.700 |ddv_scf|^2 =  2.489E-10

      iter #   4 total cpu time :   756.8 secs   av.it.:  10.4
      thresh= 1.578E-06 alpha_mix =  0.700 |ddv_scf|^2 =  1.953E-12

      iter #   5 total cpu time :   758.3 secs   av.it.:  10.4
      thresh= 1.397E-07 alpha_mix =  0.700 |ddv_scf|^2 =  3.894E-14

      iter #   6 total cpu time :   759.4 secs   av.it.:  10.6
      thresh= 1.973E-08 alpha_mix =  0.700 |ddv_scf|^2 =  2.547E-16

     End of self-consistent calculation

     Convergence has been achieved 
 
     Number of q in the star =   24
     List of q in the star:
          1   0.500000000  -0.166666667   0.500000000
          2  -0.500000000  -0.166666667  -0.500000000
          3   0.500000000  -0.166666667  -0.500000000
          4  -0.500000000  -0.166666667   0.500000000
          5  -0.166666667   0.500000000  -0.500000000
          6  -0.500000000   0.500000000  -0.166666667
          7   0.500000000   0.166666667   0.500000000
          8  -0.500000000   0.166666667   0.500000000
          9   0.500000000   0.166666667  -0.500000000
         10  -0.166666667   0.500000000   0.500000000
         11   0.166666667   0.500000000  -0.500000000
         12  -0.166666667  -0.500000000  -0.500000000
         13   0.500000000  -0.500000000   0.166666667
         14   0.500000000   0.500000000  -0.166666667
         15  -0.500000000  -0.500000000  -0.166666667
         16  -0.500000000   0.500000000   0.166666667
         17   0.166666667  -0.500000000   0.500000000
         18   0.166666667   0.500000000   0.500000000
         19  -0.500000000   0.166666667  -0.500000000
         20  -0.166666667  -0.500000000   0.500000000
         21  -0.500000000  -0.500000000   0.166666667
         22   0.500000000   0.500000000   0.166666667
         23   0.166666667  -0.500000000  -0.500000000
         24   0.500000000  -0.500000000  -0.166666667

     Diagonalizing the dynamical matrix

     q = (    0.500000000  -0.166666667   0.500000000 ) 

 **************************************************************************
     freq (    1) =       3.831732 [THz] =     127.812828 [cm-1]
     freq (    2) =       5.057806 [THz] =     168.710241 [cm-1]
     freq (    3) =       9.109337 [THz] =     303.854776 [cm-1]
     freq (    4) =      12.612479 [THz] =     420.707005 [cm-1]
     freq (    5) =      14.335939 [THz] =     478.195459 [cm-1]
     freq (    6) =      14.664750 [THz] =     489.163421 [cm-1]
 **************************************************************************

     Mode symmetry, C_s (m)     point group:

     freq (   1-   1) =        127.8  [cm-1]   --> A''                
     freq (   2-   2) =        168.7  [cm-1]   --> A'                 
     freq (   3-   3) =        303.9  [cm-1]   --> A'                 
     freq (   4-   4) =        420.7  [cm-1]   --> A'                 
     freq (   5-   5) =        478.2  [cm-1]   --> A''                
     freq (   6-   6) =        489.2  [cm-1]   --> A'                 

     Calculation of q =    0.3333333   0.0000000   0.3333333
 
     Parallelization info
     --------------------
     sticks:   dense  smooth     PW     G-vecs:    dense   smooth      PW
     Min         501     501    156                10436    10436    1917
     Max         502     502    157                10439    10439    1922
     Sum        1003    1003    313                20875    20875    3839
 
     Using Slab Decomposition
 

     Title: 
     default                                                                    


     bravais-lattice index     =            2
     lattice parameter (alat)  =      10.1899  a.u.
     unit-cell volume          =     264.5151 (a.u.)^3
     number of atoms/cell      =            2
     number of atomic types    =            1
     number of electrons       =         8.00
     number of Kohn-Sham states=            4
     kinetic-energy cutoff     =      70.0000  Ry
     charge density cutoff     =     280.0000  Ry
     Exchange-correlation= PW
                           (   1   4   0   0   0   0   0)

     celldm(1)=  10.189905  celldm(2)=   0.000000  celldm(3)=   0.000000
     celldm(4)=   0.000000  celldm(5)=   0.000000  celldm(6)=   0.000000

     crystal axes: (cart. coord. in units of alat)
               a(1) = (  -0.500000   0.000000   0.500000 )  
               a(2) = (   0.000000   0.500000   0.500000 )  
               a(3) = (  -0.500000   0.500000   0.000000 )  

     reciprocal axes: (cart. coord. in units 2 pi/alat)
               b(1) = ( -1.000000 -1.000000  1.000000 )  
               b(2) = (  1.000000  1.000000  1.000000 )  
               b(3) = ( -1.000000  1.000000 -1.000000 )  


     PseudoPot. # 1 for Si read from file:
     /fastscratch/tsievers/si_ph_benchmark_images//pseudos/Si.nc.UPF
     MD5 check sum: 9e2d726316af3d4752eea8ab0afbb951
     Pseudo is Norm-conserving + core correction, Zval =  4.0
     Generated using ONCVPSP code by D. R. Hamann
     Using radial grid of 1510 points,  6 beta functions with: 
                l(1) =   0
                l(2) =   0
                l(3) =   1
                l(4) =   1
                l(5) =   2
                l(6) =   2

     atomic species   valence    mass     pseudopotential
        Si             4.00    28.08550     Si( 1.00)

     48 Sym. Ops., with inversion, found



   Cartesian axes

     site n.     atom                  positions (alat units)
         1           Si  tau(   1) = (   0.0000000   0.0000000   0.0000000  )
         2           Si  tau(   2) = (  -0.2500000   0.2500000   0.2500000  )

     number of k points=   468

     Number of k-points >= 100: set verbosity='high' to print them.

     Dense  grid:    20875 G-vectors     FFT dimensions: (  40,  40,  40)

     Estimated max dynamical RAM per process >       6.41 MB

     Estimated total dynamical RAM >     281.83 MB

     The potential is recalculated from file :
     /fastscratch/tsievers/QE_TMP_DIR/_ph0/si_ph_bench_nimages_2_n_procs_88_0.save/charge-density

     Starting wfcs are    8 atomic wfcs

     Band Structure Calculation
     Davidson diagonalization with overlap

     ethr =  1.25E-10,  avg # of iterations = 12.8

     total cpu time spent up to now is       26.4 secs

     End of band structure calculation

     Number of k-points >= 100: set verbosity='high' to print the bands.

     highest occupied level (ev):     6.1106

     Writing config to output data dir /fastscratch/tsievers/QE_TMP_DIR/_ph0/si_ph_bench_nimages_2_n_procs_88_0.save/

     default                                                                    

     bravais-lattice index     =            2
     lattice parameter (alat)  =      10.1899  a.u.
     unit-cell volume          =     264.5151 (a.u.)^3
     number of atoms/cell      =            2
     number of atomic types    =            1
     kinetic-energy cut-off    =      70.0000  Ry
     charge density cut-off    =     280.0000  Ry
     convergence threshold     =      1.0E-15
     beta                      =       0.7000
     number of iterations used =            4
     Exchange-correlation= PW
                           (   1   4   0   0   0   0   0)


     celldm(1)=   10.18990  celldm(2)=    0.00000  celldm(3)=    0.00000
     celldm(4)=    0.00000  celldm(5)=    0.00000  celldm(6)=    0.00000

     crystal axes: (cart. coord. in units of alat)
               a(1) = ( -0.5000  0.0000  0.5000 )  
               a(2) = (  0.0000  0.5000  0.5000 )  
               a(3) = ( -0.5000  0.5000  0.0000 )  

     reciprocal axes: (cart. coord. in units 2 pi/alat)
               b(1) = ( -1.0000 -1.0000  1.0000 )  
               b(2) = (  1.0000  1.0000  1.0000 )  
               b(3) = ( -1.0000  1.0000 -1.0000 )  


     Atoms inside the unit cell: 

     Cartesian axes

     site n.  atom      mass           positions (alat units)
        1     Si  28.0855   tau(    1) = (    0.00000    0.00000    0.00000  )
        2     Si  28.0855   tau(    2) = (   -0.25000    0.25000    0.25000  )

     Computing dynamical matrix for 
                    q = (   0.3333333   0.0000000   0.3333333 )
 
      4 Sym.Ops. (no q -> -q+G )


     G cutoff =  736.4420  (  10439 G-vectors)     FFT grid: ( 40, 40, 40)
     number of k points=   468

     PseudoPot. # 1 for Si read from file:
     /fastscratch/tsievers/si_ph_benchmark_images//pseudos/Si.nc.UPF
     MD5 check sum: 9e2d726316af3d4752eea8ab0afbb951
     Pseudo is Norm-conserving + core correction, Zval =  4.0
     Generated using ONCVPSP code by D. R. Hamann
     Using radial grid of 1510 points,  6 beta functions with: 
                l(1) =   0
                l(2) =   0
                l(3) =   1
                l(4) =   1
                l(5) =   2
                l(6) =   2

     Mode symmetry, C_2v (mm2)  point group:


     Atomic displacements:
     There are    6 irreducible representations

     Representation     1      1 modes -  To be done

     Representation     2      1 modes -  To be done

     Representation     3      1 modes -  To be done

     Representation     4      1 modes -  To be done

     Representation     5      1 modes -  Not done in this run

     Representation     6      1 modes -  Not done in this run

     Compute atoms:     1,    2,



     Alpha used in Ewald sum =   2.8000
     PHONON       :   7m57.90s CPU  12m43.84s WALL



     Representation #   1 mode #   1

     Self-consistent Calculation

      iter #   1 total cpu time :   764.4 secs   av.it.:   6.3
      thresh= 1.000E-02 alpha_mix =  0.700 |ddv_scf|^2 =  5.670E-05

      iter #   2 total cpu time :   765.6 secs   av.it.:   9.7
      thresh= 7.530E-04 alpha_mix =  0.700 |ddv_scf|^2 =  8.782E-04

      iter #   3 total cpu time :   766.5 secs   av.it.:   7.9
      thresh= 2.963E-03 alpha_mix =  0.700 |ddv_scf|^2 =  6.567E-08

      iter #   4 total cpu time :   767.9 secs   av.it.:  10.0
      thresh= 2.563E-05 alpha_mix =  0.700 |ddv_scf|^2 =  1.981E-09

      iter #   5 total cpu time :   769.1 secs   av.it.:   9.8
      thresh= 4.450E-06 alpha_mix =  0.700 |ddv_scf|^2 =  7.387E-11

      iter #   6 total cpu time :   771.8 secs   av.it.:   9.6
      thresh= 8.595E-07 alpha_mix =  0.700 |ddv_scf|^2 =  6.603E-11

      iter #   7 total cpu time :   772.7 secs   av.it.:   8.0
      thresh= 8.126E-07 alpha_mix =  0.700 |ddv_scf|^2 =  1.355E-13

      iter #   8 total cpu time :   774.2 secs   av.it.:   9.9
      thresh= 3.681E-08 alpha_mix =  0.700 |ddv_scf|^2 =  9.387E-15

      iter #   9 total cpu time :   775.9 secs   av.it.:   9.5
      thresh= 9.689E-09 alpha_mix =  0.700 |ddv_scf|^2 =  1.386E-15

      iter #  10 total cpu time :   776.4 secs   av.it.:   9.3
      thresh= 3.723E-09 alpha_mix =  0.700 |ddv_scf|^2 =  1.465E-16

     End of self-consistent calculation

     Convergence has been achieved 


     Representation #   2 mode #   2

     Self-consistent Calculation

      iter #   1 total cpu time :   777.8 secs   av.it.:   6.9
      thresh= 1.000E-02 alpha_mix =  0.700 |ddv_scf|^2 =  4.939E-04

      iter #   2 total cpu time :   779.2 secs   av.it.:   9.6
      thresh= 2.222E-03 alpha_mix =  0.700 |ddv_scf|^2 =  7.892E-03

      iter #   3 total cpu time :   780.1 secs   av.it.:   7.9
      thresh= 8.884E-03 alpha_mix =  0.700 |ddv_scf|^2 =  1.369E-07

      iter #   4 total cpu time :   781.4 secs   av.it.:   9.8
      thresh= 3.700E-05 alpha_mix =  0.700 |ddv_scf|^2 =  1.073E-08

      iter #   5 total cpu time :   782.3 secs   av.it.:   9.7
      thresh= 1.036E-05 alpha_mix =  0.700 |ddv_scf|^2 =  9.105E-11

      iter #   6 total cpu time :   783.6 secs   av.it.:   9.5
      thresh= 9.542E-07 alpha_mix =  0.700 |ddv_scf|^2 =  1.865E-11

      iter #   7 total cpu time :   784.6 secs   av.it.:   8.0
      thresh= 4.319E-07 alpha_mix =  0.700 |ddv_scf|^2 =  7.738E-13

      iter #   8 total cpu time :   786.6 secs   av.it.:   9.0
      thresh= 8.797E-08 alpha_mix =  0.700 |ddv_scf|^2 =  3.649E-14

      iter #   9 total cpu time :   787.2 secs   av.it.:   8.7
      thresh= 1.910E-08 alpha_mix =  0.700 |ddv_scf|^2 =  1.964E-16

     End of self-consistent calculation

     Convergence has been achieved 


     Representation #   3 mode #   3

     Self-consistent Calculation

      iter #   1 total cpu time :   788.8 secs   av.it.:   5.9
      thresh= 1.000E-02 alpha_mix =  0.700 |ddv_scf|^2 =  2.786E-07

      iter #   2 total cpu time :   789.9 secs   av.it.:  10.3
      thresh= 5.278E-05 alpha_mix =  0.700 |ddv_scf|^2 =  1.505E-08

      iter #   3 total cpu time :   791.0 secs   av.it.:  10.2
      thresh= 1.227E-05 alpha_mix =  0.700 |ddv_scf|^2 =  1.966E-10

      iter #   4 total cpu time :   791.9 secs   av.it.:  10.1
      thresh= 1.402E-06 alpha_mix =  0.700 |ddv_scf|^2 =  4.655E-13

      iter #   5 total cpu time :   793.0 secs   av.it.:  10.3
      thresh= 6.823E-08 alpha_mix =  0.700 |ddv_scf|^2 =  7.082E-15

      iter #   6 total cpu time :   793.7 secs   av.it.:  10.4
      thresh= 8.416E-09 alpha_mix =  0.700 |ddv_scf|^2 =  5.887E-17

     End of self-consistent calculation

     Convergence has been achieved 


     Representation #   4 mode #   4

     Self-consistent Calculation

      iter #   1 total cpu time :   795.2 secs   av.it.:   5.7
      thresh= 1.000E-02 alpha_mix =  0.700 |ddv_scf|^2 =  6.220E-08

      iter #   2 total cpu time :   796.4 secs   av.it.:  10.3
      thresh= 2.494E-05 alpha_mix =  0.700 |ddv_scf|^2 =  1.688E-09

      iter #   3 total cpu time :   798.9 secs   av.it.:  10.1
      thresh= 4.108E-06 alpha_mix =  0.700 |ddv_scf|^2 =  1.042E-10

      iter #   4 total cpu time :   799.8 secs   av.it.:  10.2
      thresh= 1.021E-06 alpha_mix =  0.700 |ddv_scf|^2 =  3.781E-13

      iter #   5 total cpu time :   800.5 secs   av.it.:  10.3
      thresh= 6.149E-08 alpha_mix =  0.700 |ddv_scf|^2 =  8.516E-16

     End of self-consistent calculation

     Convergence has been achieved 

     Not diagonalizing because representation    5 is not done
 
     init_run     :      0.69s CPU      1.03s WALL (       8 calls)
     electrons    :     19.08s CPU     19.46s WALL (       8 calls)

     Called by init_run:
     wfcinit      :      0.00s CPU      0.32s WALL (       8 calls)
     potinit      :      0.03s CPU      0.04s WALL (       8 calls)
     hinit0       :      0.19s CPU      0.19s WALL (       8 calls)

     Called by electrons:
     c_bands      :     19.08s CPU     19.46s WALL (       8 calls)
     v_of_rho     :      0.03s CPU      0.03s WALL (       9 calls)

     Called by c_bands:
     init_us_2    :      2.93s CPU      3.07s WALL (    6449 calls)
     init_us_2:cp :      2.91s CPU      3.05s WALL (    6449 calls)
     cegterg      :      8.94s CPU      9.09s WALL (     212 calls)

     Called by *egterg:
     cdiaghg      :      0.25s CPU      0.25s WALL (    3085 calls)
     h_psi        :    164.70s CPU    167.46s WALL (   64754 calls)
     g_psi        :      0.09s CPU      0.09s WALL (    2873 calls)

     Called by h_psi:
     h_psi:calbec :     11.81s CPU     12.01s WALL (   64754 calls)
     vloc_psi     :    141.05s CPU    143.43s WALL (   64754 calls)
     add_vuspsi   :     10.78s CPU     10.99s WALL (   64754 calls)

     General routines
     calbec       :     21.09s CPU     21.52s WALL (  129801 calls)
     fft          :      0.92s CPU      0.93s WALL (    2055 calls)
     ffts         :      0.70s CPU      0.72s WALL (     878 calls)
     fftw         :    145.43s CPU    148.31s WALL (  547612 calls)
     davcio       :      1.43s CPU      9.05s WALL (   30032 calls)
 
     Parallel routines
 
     PHONON       :   8m21.38s CPU  13m21.92s WALL

     INITIALIZATION: 
     phq_setup    :      0.07s CPU      0.10s WALL (       9 calls)
     phq_init     :      4.47s CPU      5.83s WALL (       9 calls)
 
     phq_init     :      4.47s CPU      5.83s WALL (       9 calls)
     set_drhoc    :      2.60s CPU      2.60s WALL (      27 calls)
     init_vloc    :      0.02s CPU      0.02s WALL (       9 calls)
     init_us_1    :      0.07s CPU      0.07s WALL (       9 calls)
     init_us_2    :      2.93s CPU      3.07s WALL (    6449 calls)
 
     DYNAMICAL MATRIX:
     dynmat0      :      2.60s CPU      3.95s WALL (       9 calls)
     phqscf       :    464.69s CPU    734.76s WALL (       9 calls)
     dynmatrix    :      1.27s CPU      1.45s WALL (       9 calls)
 
     phqscf       :    464.69s CPU    734.76s WALL (       9 calls)
     solve_linter :    463.69s CPU    709.05s WALL (      40 calls)
     drhodv       :      0.95s CPU      0.99s WALL (      40 calls)
 
     dynmat0      :      2.60s CPU      3.95s WALL (       9 calls)
     dynmat_us    :      0.63s CPU      0.63s WALL (       9 calls)
     d2ionq       :      0.02s CPU      0.02s WALL (       9 calls)
     dynmatcc     :      1.73s CPU      1.73s WALL (       9 calls)
 
     dynmat_us    :      0.63s CPU      0.63s WALL (       9 calls)
 
     phqscf       :    464.69s CPU    734.76s WALL (       9 calls)
     solve_linter :    463.69s CPU    709.05s WALL (      40 calls)
 
     solve_linter :    463.69s CPU    709.05s WALL (      40 calls)
     dvqpsi_us    :      2.76s CPU      2.85s WALL (     638 calls)
     sth_kernel   :    221.60s CPU    228.90s WALL (     330 calls)
     apply_dpot_b :     11.84s CPU     12.36s WALL (    4660 calls)
     ortho        :      0.47s CPU      0.49s WALL (    5298 calls)
     cgsolve      :    176.79s CPU    179.78s WALL (    5298 calls)
     incdrhoscf   :     14.85s CPU     15.28s WALL (    5292 calls)
     dv_of_drho   :      0.77s CPU      0.78s WALL (     407 calls)
     mix_pot      :      2.96s CPU    154.86s WALL (     330 calls)
     psymdvscf    :      5.53s CPU      5.57s WALL (     325 calls)
 
     dvqpsi_us    :      2.76s CPU      2.85s WALL (     638 calls)
     dvqpsi_us_on :      0.45s CPU      0.47s WALL (     638 calls)
 
     cgsolve      :    176.79s CPU    179.78s WALL (    5298 calls)
     ch_psi       :    171.97s CPU    174.83s WALL (   61457 calls)
 
     ch_psi       :    171.97s CPU    174.83s WALL (   61457 calls)
     h_psi        :    164.70s CPU    167.46s WALL (   64754 calls)
     last         :     14.44s CPU     14.69s WALL (   61457 calls)
 
     h_psi        :    164.70s CPU    167.46s WALL (   64754 calls)
     add_vuspsi   :     10.78s CPU     10.99s WALL (   64754 calls)
 
     incdrhoscf   :     14.85s CPU     15.28s WALL (    5292 calls)
 
 
      General routines
     calbec       :     21.09s CPU     21.52s WALL (  129801 calls)
     fft          :      0.92s CPU      0.93s WALL (    2055 calls)
     ffts         :      0.70s CPU      0.72s WALL (     878 calls)
     fftw         :    145.43s CPU    148.31s WALL (  547612 calls)
     davcio       :      1.43s CPU      9.05s WALL (   30032 calls)
     write_rec    :      5.44s CPU    131.97s WALL (     370 calls)
 
 
     PHONON       :   8m21.38s CPU  13m21.92s WALL

 
   This run was terminated on:  18:13:49   3Jun2022            

=------------------------------------------------------------------------------=
   JOB DONE.
=------------------------------------------------------------------------------=
