Module for gcc 10.2:
(GNU C/C++/FORTRAN compilers v10.2.0) - loaded.
Module for OpenMPI 4.1.0-gcc10.2-infiniband loaded.

     Program PWSCF v.7.0 starts on 23May2022 at 17: 0:50 

     This program is part of the open-source Quantum ESPRESSO suite
     for quantum simulation of materials; please cite
         "P. Giannozzi et al., J. Phys.:Condens. Matter 21 395502 (2009);
         "P. Giannozzi et al., J. Phys.:Condens. Matter 29 465901 (2017);
         "P. Giannozzi et al., J. Chem. Phys. 152 154105 (2020);
          URL http://www.quantum-espresso.org", 
     in publications or presentations arising from this work. More details at
     http://www.quantum-espresso.org/quote

     Parallel version (MPI), running on    36 processors

     MPI processes distributed on     2 nodes
     R & G space division:  proc/nbgrp/npool/nimage =      36
     56532 MiB available memory on the printing compute node when the environment starts

     Reading input from in_files/silicon_bench_ompi_n_procs_36_6.scf

     Current dimensions of program PWSCF are:
     Max number of different atomic species (ntypx) = 10
     Max number of k-points (npk) =  40000
     Max angular momentum in pseudopotentials (lmaxx) =  4

     Subspace diagonalization in iterative solution of the eigenvalue problem:
     a serial algorithm will be used


     Parallelization info
     --------------------
     sticks:   dense  smooth     PW     G-vecs:    dense   smooth      PW
     Min          27      27      8                  578      578      95
     Max          28      28      9                  581      581      99
     Sum        1003    1003    301                20875    20875    3479

     Using Slab Decomposition



     bravais-lattice index     =            2
     lattice parameter (alat)  =      10.2000  a.u.
     unit-cell volume          =     265.3020 (a.u.)^3
     number of atoms/cell      =            2
     number of atomic types    =            1
     number of electrons       =         8.00
     number of Kohn-Sham states=            4
     kinetic-energy cutoff     =      70.0000  Ry
     charge density cutoff     =     280.0000  Ry
     scf convergence threshold =      1.0E-12
     mixing beta               =       0.7000
     number of iterations used =            8  plain     mixing
     Exchange-correlation= PBE
                           (   1   4   3   4   0   0   0)

     celldm(1)=  10.200000  celldm(2)=   0.000000  celldm(3)=   0.000000
     celldm(4)=   0.000000  celldm(5)=   0.000000  celldm(6)=   0.000000

     crystal axes: (cart. coord. in units of alat)
               a(1) = (  -0.500000   0.000000   0.500000 )  
               a(2) = (   0.000000   0.500000   0.500000 )  
               a(3) = (  -0.500000   0.500000   0.000000 )  

     reciprocal axes: (cart. coord. in units 2 pi/alat)
               b(1) = ( -1.000000 -1.000000  1.000000 )  
               b(2) = (  1.000000  1.000000  1.000000 )  
               b(3) = ( -1.000000  1.000000 -1.000000 )  


     PseudoPot. # 1 for Si read from file:
     ./pseudos/Si_pbe_v0.4.1.nc.sr.upf
     MD5 check sum: 02fab3f35e82123ef5bf1cb05d5b1a5e
     Pseudo is Norm-conserving + core correction, Zval =  4.0
     Generated using ONCVPSP code by D. R. Hamann
     Using radial grid of 1510 points,  6 beta functions with: 
                l(1) =   0
                l(2) =   0
                l(3) =   1
                l(4) =   1
                l(5) =   2
                l(6) =   2

     atomic species   valence    mass     pseudopotential
        Si             4.00    28.08600     Si( 1.00)

     48 Sym. Ops., with inversion, found (24 have fractional translation)



   Cartesian axes

     site n.     atom                  positions (alat units)
         1           Si  tau(   1) = (   0.0000000   0.0000000   0.0000000  )
         2           Si  tau(   2) = (   0.2500000   0.2500000   0.2500000  )

     number of k points=  1661

     Number of k-points >= 100: set verbosity='high' to print them.

     Dense  grid:    20875 G-vectors     FFT dimensions: (  40,  40,  40)

     Estimated max dynamical RAM per process >       9.17 MB

     Estimated total dynamical RAM >     330.15 MB

     Initial potential from superposition of free atoms

     starting charge       7.9988, renormalised to       8.0000
     Starting wfcs are    8 randomized atomic wfcs

     total cpu time spent up to now is       42.9 secs

     Self-consistent Calculation

     iteration #  1     ecut=    70.00 Ry     beta= 0.70
     Davidson diagonalization with overlap
     ethr =  1.00E-02,  avg # of iterations =  2.0

     Threshold (ethr) on eigenvalues was too large:
     Diagonalizing with lowered threshold

     Davidson diagonalization with overlap
     ethr =  5.86E-04,  avg # of iterations =  2.0

     total cpu time spent up to now is      194.0 secs

     total energy              =     -16.92149526 Ry
     estimated scf accuracy    <       0.05529615 Ry

     iteration #  2     ecut=    70.00 Ry     beta= 0.70
     Davidson diagonalization with overlap
     ethr =  6.91E-04,  avg # of iterations =  1.0

     total cpu time spent up to now is      251.0 secs

     total energy              =     -16.92319846 Ry
     estimated scf accuracy    <       0.00291037 Ry

     iteration #  3     ecut=    70.00 Ry     beta= 0.70
     Davidson diagonalization with overlap
     ethr =  3.64E-05,  avg # of iterations =  2.3

     total cpu time spent up to now is      332.7 secs

     total energy              =     -16.92386764 Ry
     estimated scf accuracy    <       0.00006642 Ry

     iteration #  4     ecut=    70.00 Ry     beta= 0.70
     Davidson diagonalization with overlap
     ethr =  8.30E-07,  avg # of iterations =  5.1

     total cpu time spent up to now is      453.2 secs

     total energy              =     -16.92395268 Ry
     estimated scf accuracy    <       0.00000026 Ry

     iteration #  5     ecut=    70.00 Ry     beta= 0.70
     Davidson diagonalization with overlap
     ethr =  3.25E-09,  avg # of iterations =  6.6

     total cpu time spent up to now is      602.3 secs

     total energy              =     -16.92395445 Ry
     estimated scf accuracy    <       0.00000001 Ry

     iteration #  6     ecut=    70.00 Ry     beta= 0.70
     Davidson diagonalization with overlap
     ethr =  1.25E-10,  avg # of iterations =  3.4

     total cpu time spent up to now is      696.4 secs

     total energy              =     -16.92395445 Ry
     estimated scf accuracy    <          1.0E-09 Ry

     iteration #  7     ecut=    70.00 Ry     beta= 0.70
     Davidson diagonalization with overlap
     ethr =  1.25E-11,  avg # of iterations =  3.2

     total cpu time spent up to now is      796.1 secs

     total energy              =     -16.92395445 Ry
     estimated scf accuracy    <          1.4E-10 Ry

     iteration #  8     ecut=    70.00 Ry     beta= 0.70
     Davidson diagonalization with overlap
     ethr =  1.79E-12,  avg # of iterations =  2.5

     total cpu time spent up to now is      889.1 secs

     End of self-consistent calculation

     Number of k-points >= 100: set verbosity='high' to print the bands.

     highest occupied level (ev):     6.4228

!    total energy              =     -16.92395445 Ry
     estimated scf accuracy    <          1.9E-13 Ry

     The total energy is the sum of the following terms:
     one-electron contribution =       5.10086344 Ry
     hartree contribution      =       1.07923935 Ry
     xc contribution           =      -6.20429867 Ry
     ewald contribution        =     -16.89975857 Ry

     convergence has been achieved in   8 iterations

     Writing all to output data dir /fastscratch/tsievers/QE_TMP_DIR/silicon_bench_ompi_n_procs_36_6.save/

     init_run     :     25.69s CPU     42.62s WALL (       1 calls)
     electrons    :    491.45s CPU    846.20s WALL (       1 calls)

     Called by init_run:
     wfcinit      :     25.48s CPU     42.36s WALL (       1 calls)
     potinit      :      0.02s CPU      0.03s WALL (       1 calls)
     hinit0       :      0.16s CPU      0.18s WALL (       1 calls)

     Called by electrons:
     c_bands      :    437.88s CPU    746.53s WALL (       9 calls)
     sum_band     :     53.44s CPU     88.39s WALL (       9 calls)
     v_of_rho     :      0.11s CPU      0.21s WALL (       9 calls)
     mix_rho      :      0.02s CPU      0.04s WALL (       9 calls)

     Called by c_bands:
     init_us_2    :      0.77s CPU      1.27s WALL (   31559 calls)
     init_us_2:cp :      0.73s CPU      1.22s WALL (   31559 calls)
     cegterg      :    430.14s CPU    719.53s WALL (   14949 calls)

     Called by *egterg:
     cdiaghg      :      1.77s CPU      2.95s WALL (   60039 calls)
     h_psi        :    409.54s CPU    684.51s WALL (   63361 calls)
     g_psi        :      0.08s CPU      0.13s WALL (   46751 calls)

     Called by h_psi:
     h_psi:calbec :     46.88s CPU     78.56s WALL (   63361 calls)
     vloc_psi     :    361.48s CPU    604.00s WALL (   63361 calls)
     add_vuspsi   :      0.92s CPU      1.52s WALL (   63361 calls)

     General routines
     calbec       :     46.78s CPU     78.42s WALL (   63361 calls)
     fft          :      0.27s CPU      0.38s WALL (      91 calls)
     ffts         :      0.02s CPU      0.03s WALL (       9 calls)
     fftw         :    412.86s CPU    689.01s WALL (  490248 calls)

     Parallel routines

     PWSCF        :   9m 4.62s CPU  16m15.17s WALL


   This run was terminated on:  17:17: 6  23May2022            

=------------------------------------------------------------------------------=
   JOB DONE.
=------------------------------------------------------------------------------=
real 977.33
user 11530.86
sys 7913.95
