
     Program PHONON v.7.0 starts on  5Jun2022 at  0:35:16 

     This program is part of the open-source Quantum ESPRESSO suite
     for quantum simulation of materials; please cite
         "P. Giannozzi et al., J. Phys.:Condens. Matter 21 395502 (2009);
         "P. Giannozzi et al., J. Phys.:Condens. Matter 29 465901 (2017);
         "P. Giannozzi et al., J. Chem. Phys. 152 154105 (2020);
          URL http://www.quantum-espresso.org", 
     in publications or presentations arising from this work. More details at
     http://www.quantum-espresso.org/quote

     Parallel version (MPI), running on   168 processors

     MPI processes distributed on     9 nodes
     path-images division:  nimage    =       2
     K-points division:     npool     =      42
     R & G space division:  proc/nbgrp/npool/nimage =       2
     1868 MiB available memory on the printing compute node when the environment starts
 
      Title line not specified: using 'default'.

     Reading xml data from directory:

     /fastscratch/tsievers/QE_TMP_DIR/si_ph_bench_nimages_2_n_procs_168_0.save/

     IMPORTANT: XC functional enforced from input :
     Exchange-correlation= PW
                           (   1   4   0   0   0   0   0)
     Any further DFT definition will be discarded
     Please, verify this is what you really want

 
     Parallelization info
     --------------------
     sticks:   dense  smooth     PW     G-vecs:    dense   smooth      PW
     Min         501     501    150                10436    10436    1738
     Max         502     502    151                10439    10439    1741
     Sum        1003    1003    301                20875    20875    3479
 
     Using Slab Decomposition
 
     Message from routine divide_et_impera:
     suboptimal parallelization: some nodes have no k-points
     Reading collected, re-writing distributed wavefunctions


     Dynamical matrices for ( 6, 6, 6)  uniform grid of q-points
     (  16 q-points):
       N         xq(1)         xq(2)         xq(3) 
       1   0.000000000   0.000000000   0.000000000
       2  -0.166666667   0.166666667  -0.166666667
       3  -0.333333333   0.333333333  -0.333333333
       4   0.500000000  -0.500000000   0.500000000
       5   0.000000000   0.333333333   0.000000000
       6  -0.166666667   0.500000000  -0.166666667
       7   0.666666667  -0.333333333   0.666666667
       8   0.500000000  -0.166666667   0.500000000
       9   0.333333333   0.000000000   0.333333333
      10   0.000000000   0.666666667   0.000000000
      11   0.833333333  -0.166666667   0.833333333
      12   0.666666667  -0.000000000   0.666666667
      13   0.000000000  -1.000000000   0.000000000
      14   0.666666667  -0.333333333   1.000000000
      15   0.500000000  -0.166666667   0.833333333
      16  -0.333333333  -1.000000000   0.000000000

      Image parallelization. There are  2 images and    76 representations
      The estimated total work is  1512 self-consistent (scf) runs
      I am image number     1 and my work is about  759 scf runs. I calculate: 
      q point number     9, representations:
       5 6
      q point number    10, representations:
       0 1 2 3 4
      q point number    11, representations:
       0 1 2 3 4 5 6
      q point number    12, representations:
       0 1 2 3 4 5 6
      q point number    13, representations:
       0 1 2 3
      q point number    14, representations:
       0 1 2 3 4 5 6
      q point number    15, representations:
       0 1 2 3 4 5 6
      q point number    16, representations:
       0 1 2 3

     Calculation of q =    0.3333333   0.0000000   0.3333333

     Subspace diagonalization in iterative solution of the eigenvalue problem:
     a serial algorithm will be used

 
     Parallelization info
     --------------------
     sticks:   dense  smooth     PW     G-vecs:    dense   smooth      PW
     Min         501     501    156                10436    10436    1917
     Max         502     502    157                10439    10439    1922
     Sum        1003    1003    313                20875    20875    3839
 
     Using Slab Decomposition
 

     Title: 
     default                                                                    


     bravais-lattice index     =            2
     lattice parameter (alat)  =      10.1899  a.u.
     unit-cell volume          =     264.5151 (a.u.)^3
     number of atoms/cell      =            2
     number of atomic types    =            1
     number of electrons       =         8.00
     number of Kohn-Sham states=            4
     kinetic-energy cutoff     =      70.0000  Ry
     charge density cutoff     =     280.0000  Ry
     Exchange-correlation= PW
                           (   1   4   0   0   0   0   0)

     celldm(1)=  10.189905  celldm(2)=   0.000000  celldm(3)=   0.000000
     celldm(4)=   0.000000  celldm(5)=   0.000000  celldm(6)=   0.000000

     crystal axes: (cart. coord. in units of alat)
               a(1) = (  -0.500000   0.000000   0.500000 )  
               a(2) = (   0.000000   0.500000   0.500000 )  
               a(3) = (  -0.500000   0.500000   0.000000 )  

     reciprocal axes: (cart. coord. in units 2 pi/alat)
               b(1) = ( -1.000000 -1.000000  1.000000 )  
               b(2) = (  1.000000  1.000000  1.000000 )  
               b(3) = ( -1.000000  1.000000 -1.000000 )  


     PseudoPot. # 1 for Si read from file:
     /fastscratch/tsievers/si_ph_benchmark_images//pseudos/Si.nc.UPF
     MD5 check sum: 9e2d726316af3d4752eea8ab0afbb951
     Pseudo is Norm-conserving + core correction, Zval =  4.0
     Generated using ONCVPSP code by D. R. Hamann
     Using radial grid of 1510 points,  6 beta functions with: 
                l(1) =   0
                l(2) =   0
                l(3) =   1
                l(4) =   1
                l(5) =   2
                l(6) =   2

     atomic species   valence    mass     pseudopotential
        Si             4.00    28.08550     Si( 1.00)

     48 Sym. Ops., with inversion, found



   Cartesian axes

     site n.     atom                  positions (alat units)
         1           Si  tau(   1) = (   0.0000000   0.0000000   0.0000000  )
         2           Si  tau(   2) = (  -0.2500000   0.2500000   0.2500000  )

     number of k points=   468

     Number of k-points >= 100: set verbosity='high' to print them.

     Dense  grid:    20875 G-vectors     FFT dimensions: (  40,  40,  40)

     Estimated max dynamical RAM per process >       6.41 MB

     Estimated total dynamical RAM >     538.04 MB

     The potential is recalculated from file :
     /fastscratch/tsievers/QE_TMP_DIR/_ph1/si_ph_bench_nimages_2_n_procs_168_0.save/charge-density

     Starting wfcs are    8 atomic wfcs

     Band Structure Calculation
     Davidson diagonalization with overlap

     ethr =  1.25E-10,  avg # of iterations = 12.8

     total cpu time spent up to now is        3.8 secs

     End of band structure calculation

     Number of k-points >= 100: set verbosity='high' to print the bands.

     highest occupied level (ev):     6.1106

     Writing config to output data dir /fastscratch/tsievers/QE_TMP_DIR/_ph1/si_ph_bench_nimages_2_n_procs_168_0.save/

     default                                                                    

     bravais-lattice index     =            2
     lattice parameter (alat)  =      10.1899  a.u.
     unit-cell volume          =     264.5151 (a.u.)^3
     number of atoms/cell      =            2
     number of atomic types    =            1
     kinetic-energy cut-off    =      70.0000  Ry
     charge density cut-off    =     280.0000  Ry
     convergence threshold     =      1.0E-15
     beta                      =       0.7000
     number of iterations used =            4
     Exchange-correlation= PW
                           (   1   4   0   0   0   0   0)


     celldm(1)=   10.18990  celldm(2)=    0.00000  celldm(3)=    0.00000
     celldm(4)=    0.00000  celldm(5)=    0.00000  celldm(6)=    0.00000

     crystal axes: (cart. coord. in units of alat)
               a(1) = ( -0.5000  0.0000  0.5000 )  
               a(2) = (  0.0000  0.5000  0.5000 )  
               a(3) = ( -0.5000  0.5000  0.0000 )  

     reciprocal axes: (cart. coord. in units 2 pi/alat)
               b(1) = ( -1.0000 -1.0000  1.0000 )  
               b(2) = (  1.0000  1.0000  1.0000 )  
               b(3) = ( -1.0000  1.0000 -1.0000 )  


     Atoms inside the unit cell: 

     Cartesian axes

     site n.  atom      mass           positions (alat units)
        1     Si  28.0855   tau(    1) = (    0.00000    0.00000    0.00000  )
        2     Si  28.0855   tau(    2) = (   -0.25000    0.25000    0.25000  )

     Computing dynamical matrix for 
                    q = (   0.3333333   0.0000000   0.3333333 )
 
      4 Sym.Ops. (no q -> -q+G )


     G cutoff =  736.4420  (  10439 G-vectors)     FFT grid: ( 40, 40, 40)
     number of k points=   468

     PseudoPot. # 1 for Si read from file:
     /fastscratch/tsievers/si_ph_benchmark_images//pseudos/Si.nc.UPF
     MD5 check sum: 9e2d726316af3d4752eea8ab0afbb951
     Pseudo is Norm-conserving + core correction, Zval =  4.0
     Generated using ONCVPSP code by D. R. Hamann
     Using radial grid of 1510 points,  6 beta functions with: 
                l(1) =   0
                l(2) =   0
                l(3) =   1
                l(4) =   1
                l(5) =   2
                l(6) =   2

     Mode symmetry, C_2v (mm2)  point group:


     Atomic displacements:
     There are    6 irreducible representations

     Representation     1      1 modes -  Not done in this run

     Representation     2      1 modes -  Not done in this run

     Representation     3      1 modes -  Not done in this run

     Representation     4      1 modes -  Not done in this run

     Representation     5      1 modes -  To be done

     Representation     6      1 modes -  To be done

     Compute atoms:     1,    2,


     PHONON       :      3.22s CPU      5.22s WALL



     Representation #   5 mode #   5

     Self-consistent Calculation

      iter #   1 total cpu time :     7.7 secs   av.it.:   5.4
      thresh= 1.000E-02 alpha_mix =  0.700 |ddv_scf|^2 =  1.065E-07

      iter #   2 total cpu time :     8.6 secs   av.it.:  10.7
      thresh= 3.264E-05 alpha_mix =  0.700 |ddv_scf|^2 =  3.511E-08

      iter #   3 total cpu time :    12.7 secs   av.it.:  10.2
      thresh= 1.874E-05 alpha_mix =  0.700 |ddv_scf|^2 =  4.471E-10

      iter #   4 total cpu time :    16.5 secs   av.it.:  10.3
      thresh= 2.115E-06 alpha_mix =  0.700 |ddv_scf|^2 =  7.385E-12

      iter #   5 total cpu time :    19.1 secs   av.it.:  10.5
      thresh= 2.718E-07 alpha_mix =  0.700 |ddv_scf|^2 =  2.492E-13

      iter #   6 total cpu time :    22.9 secs   av.it.:  10.6
      thresh= 4.992E-08 alpha_mix =  0.700 |ddv_scf|^2 =  5.578E-15

      iter #   7 total cpu time :    30.5 secs   av.it.:  10.7
      thresh= 7.469E-09 alpha_mix =  0.700 |ddv_scf|^2 =  3.875E-17

     End of self-consistent calculation

     Convergence has been achieved 


     Representation #   6 mode #   6

     Self-consistent Calculation

      iter #   1 total cpu time :    38.5 secs   av.it.:   6.1
      thresh= 1.000E-02 alpha_mix =  0.700 |ddv_scf|^2 =  1.175E-06

      iter #   2 total cpu time :    41.0 secs   av.it.:  10.6
      thresh= 1.084E-04 alpha_mix =  0.700 |ddv_scf|^2 =  4.122E-07

      iter #   3 total cpu time :    45.3 secs   av.it.:  10.1
      thresh= 6.420E-05 alpha_mix =  0.700 |ddv_scf|^2 =  1.146E-09

      iter #   4 total cpu time :    48.4 secs   av.it.:  10.4
      thresh= 3.386E-06 alpha_mix =  0.700 |ddv_scf|^2 =  5.982E-11

      iter #   5 total cpu time :    51.4 secs   av.it.:  10.4
      thresh= 7.734E-07 alpha_mix =  0.700 |ddv_scf|^2 =  1.894E-13

      iter #   6 total cpu time :    54.8 secs   av.it.:  10.4
      thresh= 4.353E-08 alpha_mix =  0.700 |ddv_scf|^2 =  2.324E-15

      iter #   7 total cpu time :    55.5 secs   av.it.:  10.6
      thresh= 4.821E-09 alpha_mix =  0.700 |ddv_scf|^2 =  7.183E-17

     End of self-consistent calculation

     Convergence has been achieved 

     Not diagonalizing because representation    0 is not done

     Calculation of q =    0.0000000   0.6666667   0.0000000
 
     Parallelization info
     --------------------
     sticks:   dense  smooth     PW     G-vecs:    dense   smooth      PW
     Min         501     501    156                10436    10436    1917
     Max         502     502    157                10439    10439    1922
     Sum        1003    1003    313                20875    20875    3839
 
     Using Slab Decomposition
 

     Title: 
     default                                                                    


     bravais-lattice index     =            2
     lattice parameter (alat)  =      10.1899  a.u.
     unit-cell volume          =     264.5151 (a.u.)^3
     number of atoms/cell      =            2
     number of atomic types    =            1
     number of electrons       =         8.00
     number of Kohn-Sham states=            4
     kinetic-energy cutoff     =      70.0000  Ry
     charge density cutoff     =     280.0000  Ry
     Exchange-correlation= PW
                           (   1   4   0   0   0   0   0)

     celldm(1)=  10.189905  celldm(2)=   0.000000  celldm(3)=   0.000000
     celldm(4)=   0.000000  celldm(5)=   0.000000  celldm(6)=   0.000000

     crystal axes: (cart. coord. in units of alat)
               a(1) = (  -0.500000   0.000000   0.500000 )  
               a(2) = (   0.000000   0.500000   0.500000 )  
               a(3) = (  -0.500000   0.500000   0.000000 )  

     reciprocal axes: (cart. coord. in units 2 pi/alat)
               b(1) = ( -1.000000 -1.000000  1.000000 )  
               b(2) = (  1.000000  1.000000  1.000000 )  
               b(3) = ( -1.000000  1.000000 -1.000000 )  


     PseudoPot. # 1 for Si read from file:
     /fastscratch/tsievers/si_ph_benchmark_images//pseudos/Si.nc.UPF
     MD5 check sum: 9e2d726316af3d4752eea8ab0afbb951
     Pseudo is Norm-conserving + core correction, Zval =  4.0
     Generated using ONCVPSP code by D. R. Hamann
     Using radial grid of 1510 points,  6 beta functions with: 
                l(1) =   0
                l(2) =   0
                l(3) =   1
                l(4) =   1
                l(5) =   2
                l(6) =   2

     atomic species   valence    mass     pseudopotential
        Si             4.00    28.08550     Si( 1.00)

     48 Sym. Ops., with inversion, found



   Cartesian axes

     site n.     atom                  positions (alat units)
         1           Si  tau(   1) = (   0.0000000   0.0000000   0.0000000  )
         2           Si  tau(   2) = (  -0.2500000   0.2500000   0.2500000  )

     number of k points=   252

     Number of k-points >= 100: set verbosity='high' to print them.

     Dense  grid:    20875 G-vectors     FFT dimensions: (  40,  40,  40)

     Estimated max dynamical RAM per process >       6.41 MB

     Estimated total dynamical RAM >     538.85 MB

     The potential is recalculated from file :
     /fastscratch/tsievers/QE_TMP_DIR/_ph1/si_ph_bench_nimages_2_n_procs_168_0.save/charge-density

     Starting wfcs are    8 atomic wfcs

     Band Structure Calculation
     Davidson diagonalization with overlap

     ethr =  1.25E-10,  avg # of iterations = 12.8

     total cpu time spent up to now is        4.5 secs

     End of band structure calculation

     Number of k-points >= 100: set verbosity='high' to print the bands.

     highest occupied level (ev):     6.1106

     Writing config to output data dir /fastscratch/tsievers/QE_TMP_DIR/_ph1/si_ph_bench_nimages_2_n_procs_168_0.save/

     default                                                                    

     bravais-lattice index     =            2
     lattice parameter (alat)  =      10.1899  a.u.
     unit-cell volume          =     264.5151 (a.u.)^3
     number of atoms/cell      =            2
     number of atomic types    =            1
     kinetic-energy cut-off    =      70.0000  Ry
     charge density cut-off    =     280.0000  Ry
     convergence threshold     =      1.0E-15
     beta                      =       0.7000
     number of iterations used =            4
     Exchange-correlation= PW
                           (   1   4   0   0   0   0   0)


     celldm(1)=   10.18990  celldm(2)=    0.00000  celldm(3)=    0.00000
     celldm(4)=    0.00000  celldm(5)=    0.00000  celldm(6)=    0.00000

     crystal axes: (cart. coord. in units of alat)
               a(1) = ( -0.5000  0.0000  0.5000 )  
               a(2) = (  0.0000  0.5000  0.5000 )  
               a(3) = ( -0.5000  0.5000  0.0000 )  

     reciprocal axes: (cart. coord. in units 2 pi/alat)
               b(1) = ( -1.0000 -1.0000  1.0000 )  
               b(2) = (  1.0000  1.0000  1.0000 )  
               b(3) = ( -1.0000  1.0000 -1.0000 )  


     Atoms inside the unit cell: 

     Cartesian axes

     site n.  atom      mass           positions (alat units)
        1     Si  28.0855   tau(    1) = (    0.00000    0.00000    0.00000  )
        2     Si  28.0855   tau(    2) = (   -0.25000    0.25000    0.25000  )

     Computing dynamical matrix for 
                    q = (   0.0000000   0.6666667   0.0000000 )
 
      8 Sym.Ops. (no q -> -q+G )


     G cutoff =  736.4420  (  10439 G-vectors)     FFT grid: ( 40, 40, 40)
     number of k points=   252

     PseudoPot. # 1 for Si read from file:
     /fastscratch/tsievers/si_ph_benchmark_images//pseudos/Si.nc.UPF
     MD5 check sum: 9e2d726316af3d4752eea8ab0afbb951
     Pseudo is Norm-conserving + core correction, Zval =  4.0
     Generated using ONCVPSP code by D. R. Hamann
     Using radial grid of 1510 points,  6 beta functions with: 
                l(1) =   0
                l(2) =   0
                l(3) =   1
                l(4) =   1
                l(5) =   2
                l(6) =   2

     Mode symmetry, C_4v (4mm)  point group:


     Atomic displacements:
     There are    4 irreducible representations

     Representation     1      1 modes -  To be done

     Representation     2      1 modes -  To be done

     Representation     3      2 modes -  To be done

     Representation     4      2 modes -  To be done



     Alpha used in Ewald sum =   2.8000
     PHONON       :     26.89s CPU   1m 1.95s WALL



     Representation #   1 mode #   1

     Self-consistent Calculation

      iter #   1 total cpu time :    62.3 secs   av.it.:   6.6
      thresh= 1.000E-02 alpha_mix =  0.700 |ddv_scf|^2 =  9.954E-05

      iter #   2 total cpu time :    66.3 secs   av.it.:   9.8
      thresh= 9.977E-04 alpha_mix =  0.700 |ddv_scf|^2 =  6.208E-04

      iter #   3 total cpu time :    70.2 secs   av.it.:   8.6
      thresh= 2.492E-03 alpha_mix =  0.700 |ddv_scf|^2 =  4.234E-09

      iter #   4 total cpu time :    73.5 secs   av.it.:  10.1
      thresh= 6.507E-06 alpha_mix =  0.700 |ddv_scf|^2 =  2.493E-10

      iter #   5 total cpu time :    76.5 secs   av.it.:  10.1
      thresh= 1.579E-06 alpha_mix =  0.700 |ddv_scf|^2 =  7.848E-12

      iter #   6 total cpu time :    79.2 secs   av.it.:  10.2
      thresh= 2.801E-07 alpha_mix =  0.700 |ddv_scf|^2 =  1.539E-13

      iter #   7 total cpu time :    79.9 secs   av.it.:   9.4
      thresh= 3.923E-08 alpha_mix =  0.700 |ddv_scf|^2 =  2.979E-16

     End of self-consistent calculation

     Convergence has been achieved 


     Representation #   2 mode #   2

     Self-consistent Calculation

      iter #   1 total cpu time :    83.4 secs   av.it.:   6.0
      thresh= 1.000E-02 alpha_mix =  0.700 |ddv_scf|^2 =  1.332E-06

      iter #   2 total cpu time :    85.2 secs   av.it.:  10.3
      thresh= 1.154E-04 alpha_mix =  0.700 |ddv_scf|^2 =  5.611E-07

      iter #   3 total cpu time :    86.3 secs   av.it.:   9.8
      thresh= 7.490E-05 alpha_mix =  0.700 |ddv_scf|^2 =  8.308E-10

      iter #   4 total cpu time :    87.6 secs   av.it.:  10.2
      thresh= 2.882E-06 alpha_mix =  0.700 |ddv_scf|^2 =  4.888E-11

      iter #   5 total cpu time :    90.2 secs   av.it.:  10.3
      thresh= 6.992E-07 alpha_mix =  0.700 |ddv_scf|^2 =  8.690E-14

      iter #   6 total cpu time :    93.4 secs   av.it.:  10.3
      thresh= 2.948E-08 alpha_mix =  0.700 |ddv_scf|^2 =  1.774E-15

      iter #   7 total cpu time :    96.3 secs   av.it.:  10.3
      thresh= 4.212E-09 alpha_mix =  0.700 |ddv_scf|^2 =  2.817E-17

     End of self-consistent calculation

     Convergence has been achieved 


     Representation #   3 modes #   3   4

     Self-consistent Calculation

      iter #   1 total cpu time :    98.9 secs   av.it.:   6.0
      thresh= 1.000E-02 alpha_mix =  0.700 |ddv_scf|^2 =  1.211E-07

      iter #   2 total cpu time :   103.0 secs   av.it.:  11.3
      thresh= 3.480E-05 alpha_mix =  0.700 |ddv_scf|^2 =  2.568E-08

      iter #   3 total cpu time :   106.6 secs   av.it.:  10.9
      thresh= 1.602E-05 alpha_mix =  0.700 |ddv_scf|^2 =  7.906E-11

      iter #   4 total cpu time :   110.1 secs   av.it.:  11.3
      thresh= 8.892E-07 alpha_mix =  0.700 |ddv_scf|^2 =  2.393E-13

      iter #   5 total cpu time :   115.4 secs   av.it.:  11.3
      thresh= 4.892E-08 alpha_mix =  0.700 |ddv_scf|^2 =  2.728E-15

      iter #   6 total cpu time :   116.7 secs   av.it.:  11.3
      thresh= 5.223E-09 alpha_mix =  0.700 |ddv_scf|^2 =  4.492E-17

     End of self-consistent calculation

     Convergence has been achieved 


     Representation #   4 modes #   5   6

     Self-consistent Calculation

      iter #   1 total cpu time :   122.4 secs   av.it.:   6.2
      thresh= 1.000E-02 alpha_mix =  0.700 |ddv_scf|^2 =  1.906E-07

      iter #   2 total cpu time :   129.0 secs   av.it.:  11.3
      thresh= 4.365E-05 alpha_mix =  0.700 |ddv_scf|^2 =  4.099E-08

      iter #   3 total cpu time :   132.2 secs   av.it.:  11.0
      thresh= 2.025E-05 alpha_mix =  0.700 |ddv_scf|^2 =  8.739E-11

      iter #   4 total cpu time :   136.5 secs   av.it.:  11.3
      thresh= 9.349E-07 alpha_mix =  0.700 |ddv_scf|^2 =  2.191E-13

      iter #   5 total cpu time :   140.8 secs   av.it.:  11.3
      thresh= 4.681E-08 alpha_mix =  0.700 |ddv_scf|^2 =  3.658E-15

      iter #   6 total cpu time :   141.7 secs   av.it.:  11.4
      thresh= 6.048E-09 alpha_mix =  0.700 |ddv_scf|^2 =  4.320E-17

     End of self-consistent calculation

     Convergence has been achieved 
 
     Number of q in the star =    6
     List of q in the star:
          1   0.000000000   0.666666667   0.000000000
          2   0.000000000  -0.666666667   0.000000000
          3   0.666666667   0.000000000   0.000000000
          4  -0.666666667   0.000000000   0.000000000
          5   0.000000000   0.000000000   0.666666667
          6   0.000000000   0.000000000  -0.666666667

     Diagonalizing the dynamical matrix

     q = (    0.000000000   0.666666667   0.000000000 ) 

 **************************************************************************
     freq (    1) =       4.039123 [THz] =     134.730637 [cm-1]
     freq (    2) =       4.039123 [THz] =     134.730637 [cm-1]
     freq (    3) =       9.188765 [THz] =     306.504204 [cm-1]
     freq (    4) =      13.988708 [THz] =     466.613070 [cm-1]
     freq (    5) =      13.988708 [THz] =     466.613070 [cm-1]
     freq (    6) =      14.186778 [THz] =     473.219972 [cm-1]
 **************************************************************************

     Mode symmetry, C_4v (4mm)  point group:

     freq (   1-   2) =        134.7  [cm-1]   --> E    G_5 D_5       
     freq (   3-   3) =        306.5  [cm-1]   --> A_1  G_1 D_1       
     freq (   4-   5) =        466.6  [cm-1]   --> E    G_5 D_5       
     freq (   6-   6) =        473.2  [cm-1]   --> B_2  G_4 D_2'      

     Calculation of q =    0.8333333  -0.1666667   0.8333333
 
     Parallelization info
     --------------------
     sticks:   dense  smooth     PW     G-vecs:    dense   smooth      PW
     Min         501     501    174                10436    10436    2142
     Max         502     502    175                10439    10439    2143
     Sum        1003    1003    349                20875    20875    4285
 
     Using Slab Decomposition
 

     Title: 
     default                                                                    


     bravais-lattice index     =            2
     lattice parameter (alat)  =      10.1899  a.u.
     unit-cell volume          =     264.5151 (a.u.)^3
     number of atoms/cell      =            2
     number of atomic types    =            1
     number of electrons       =         8.00
     number of Kohn-Sham states=            4
     kinetic-energy cutoff     =      70.0000  Ry
     charge density cutoff     =     280.0000  Ry
     Exchange-correlation= PW
                           (   1   4   0   0   0   0   0)

     celldm(1)=  10.189905  celldm(2)=   0.000000  celldm(3)=   0.000000
     celldm(4)=   0.000000  celldm(5)=   0.000000  celldm(6)=   0.000000

     crystal axes: (cart. coord. in units of alat)
               a(1) = (  -0.500000   0.000000   0.500000 )  
               a(2) = (   0.000000   0.500000   0.500000 )  
               a(3) = (  -0.500000   0.500000   0.000000 )  

     reciprocal axes: (cart. coord. in units 2 pi/alat)
               b(1) = ( -1.000000 -1.000000  1.000000 )  
               b(2) = (  1.000000  1.000000  1.000000 )  
               b(3) = ( -1.000000  1.000000 -1.000000 )  


     PseudoPot. # 1 for Si read from file:
     /fastscratch/tsievers/si_ph_benchmark_images//pseudos/Si.nc.UPF
     MD5 check sum: 9e2d726316af3d4752eea8ab0afbb951
     Pseudo is Norm-conserving + core correction, Zval =  4.0
     Generated using ONCVPSP code by D. R. Hamann
     Using radial grid of 1510 points,  6 beta functions with: 
                l(1) =   0
                l(2) =   0
                l(3) =   1
                l(4) =   1
                l(5) =   2
                l(6) =   2

     atomic species   valence    mass     pseudopotential
        Si             4.00    28.08550     Si( 1.00)

     48 Sym. Ops., with inversion, found



   Cartesian axes

     site n.     atom                  positions (alat units)
         1           Si  tau(   1) = (   0.0000000   0.0000000   0.0000000  )
         2           Si  tau(   2) = (  -0.2500000   0.2500000   0.2500000  )

     number of k points=   936

     Number of k-points >= 100: set verbosity='high' to print them.

     Dense  grid:    20875 G-vectors     FFT dimensions: (  40,  40,  40)

     Estimated max dynamical RAM per process >       6.44 MB

     Estimated total dynamical RAM >     541.00 MB

     The potential is recalculated from file :
     /fastscratch/tsievers/QE_TMP_DIR/_ph1/si_ph_bench_nimages_2_n_procs_168_0.save/charge-density

     Starting wfcs are    8 atomic wfcs

     Band Structure Calculation
     Davidson diagonalization with overlap

     ethr =  1.25E-10,  avg # of iterations = 12.8

     total cpu time spent up to now is       11.9 secs

     End of band structure calculation

     Number of k-points >= 100: set verbosity='high' to print the bands.

     highest occupied level (ev):     6.1106

     Writing config to output data dir /fastscratch/tsievers/QE_TMP_DIR/_ph1/si_ph_bench_nimages_2_n_procs_168_0.save/

     default                                                                    

     bravais-lattice index     =            2
     lattice parameter (alat)  =      10.1899  a.u.
     unit-cell volume          =     264.5151 (a.u.)^3
     number of atoms/cell      =            2
     number of atomic types    =            1
     kinetic-energy cut-off    =      70.0000  Ry
     charge density cut-off    =     280.0000  Ry
     convergence threshold     =      1.0E-15
     beta                      =       0.7000
     number of iterations used =            4
     Exchange-correlation= PW
                           (   1   4   0   0   0   0   0)


     celldm(1)=   10.18990  celldm(2)=    0.00000  celldm(3)=    0.00000
     celldm(4)=    0.00000  celldm(5)=    0.00000  celldm(6)=    0.00000

     crystal axes: (cart. coord. in units of alat)
               a(1) = ( -0.5000  0.0000  0.5000 )  
               a(2) = (  0.0000  0.5000  0.5000 )  
               a(3) = ( -0.5000  0.5000  0.0000 )  

     reciprocal axes: (cart. coord. in units 2 pi/alat)
               b(1) = ( -1.0000 -1.0000  1.0000 )  
               b(2) = (  1.0000  1.0000  1.0000 )  
               b(3) = ( -1.0000  1.0000 -1.0000 )  


     Atoms inside the unit cell: 

     Cartesian axes

     site n.  atom      mass           positions (alat units)
        1     Si  28.0855   tau(    1) = (    0.00000    0.00000    0.00000  )
        2     Si  28.0855   tau(    2) = (   -0.25000    0.25000    0.25000  )

     Computing dynamical matrix for 
                    q = (   0.8333333  -0.1666667   0.8333333 )
 
      2 Sym.Ops. (no q -> -q+G )


     G cutoff =  736.4420  (  10439 G-vectors)     FFT grid: ( 40, 40, 40)
     number of k points=   936

     PseudoPot. # 1 for Si read from file:
     /fastscratch/tsievers/si_ph_benchmark_images//pseudos/Si.nc.UPF
     MD5 check sum: 9e2d726316af3d4752eea8ab0afbb951
     Pseudo is Norm-conserving + core correction, Zval =  4.0
     Generated using ONCVPSP code by D. R. Hamann
     Using radial grid of 1510 points,  6 beta functions with: 
                l(1) =   0
                l(2) =   0
                l(3) =   1
                l(4) =   1
                l(5) =   2
                l(6) =   2

     Mode symmetry, C_s (m)     point group:


     Atomic displacements:
     There are    6 irreducible representations

     Representation     1      1 modes -  To be done

     Representation     2      1 modes -  To be done

     Representation     3      1 modes -  To be done

     Representation     4      1 modes -  To be done

     Representation     5      1 modes -  To be done

     Representation     6      1 modes -  To be done



     Alpha used in Ewald sum =   2.8000
     PHONON       :   1m22.37s CPU   2m32.49s WALL



     Representation #   1 mode #   1

     Self-consistent Calculation

      iter #   1 total cpu time :   155.3 secs   av.it.:   6.5
      thresh= 1.000E-02 alpha_mix =  0.700 |ddv_scf|^2 =  1.083E-05

      iter #   2 total cpu time :   158.7 secs   av.it.:  10.4
      thresh= 3.292E-04 alpha_mix =  0.700 |ddv_scf|^2 =  2.655E-05

      iter #   3 total cpu time :   162.1 secs   av.it.:   9.4
      thresh= 5.153E-04 alpha_mix =  0.700 |ddv_scf|^2 =  1.234E-07

      iter #   4 total cpu time :   164.4 secs   av.it.:   9.9
      thresh= 3.512E-05 alpha_mix =  0.700 |ddv_scf|^2 =  9.140E-10

      iter #   5 total cpu time :   167.4 secs   av.it.:  10.4
      thresh= 3.023E-06 alpha_mix =  0.700 |ddv_scf|^2 =  1.579E-10

      iter #   6 total cpu time :   169.6 secs   av.it.:  10.3
      thresh= 1.257E-06 alpha_mix =  0.700 |ddv_scf|^2 =  3.225E-12

      iter #   7 total cpu time :   173.6 secs   av.it.:  10.5
      thresh= 1.796E-07 alpha_mix =  0.700 |ddv_scf|^2 =  1.088E-13

      iter #   8 total cpu time :   177.5 secs   av.it.:  10.6
      thresh= 3.299E-08 alpha_mix =  0.700 |ddv_scf|^2 =  2.946E-14

      iter #   9 total cpu time :   180.4 secs   av.it.:  10.2
      thresh= 1.716E-08 alpha_mix =  0.700 |ddv_scf|^2 =  2.233E-14

      iter #  10 total cpu time :   182.0 secs   av.it.:   9.6
      thresh= 1.494E-08 alpha_mix =  0.700 |ddv_scf|^2 =  7.641E-16

     End of self-consistent calculation

     Convergence has been achieved 


     Representation #   2 mode #   2

     Self-consistent Calculation

      iter #   1 total cpu time :   187.3 secs   av.it.:   6.5
      thresh= 1.000E-02 alpha_mix =  0.700 |ddv_scf|^2 =  1.040E-05

      iter #   2 total cpu time :   191.8 secs   av.it.:  10.5
      thresh= 3.225E-04 alpha_mix =  0.700 |ddv_scf|^2 =  2.545E-05

      iter #   3 total cpu time :   193.8 secs   av.it.:   9.4
      thresh= 5.045E-04 alpha_mix =  0.700 |ddv_scf|^2 =  1.219E-07

      iter #   4 total cpu time :   196.2 secs   av.it.:  10.0
      thresh= 3.491E-05 alpha_mix =  0.700 |ddv_scf|^2 =  8.403E-10

      iter #   5 total cpu time :   198.7 secs   av.it.:  10.4
      thresh= 2.899E-06 alpha_mix =  0.700 |ddv_scf|^2 =  9.366E-11

      iter #   6 total cpu time :   201.0 secs   av.it.:  10.4
      thresh= 9.678E-07 alpha_mix =  0.700 |ddv_scf|^2 =  5.831E-12

      iter #   7 total cpu time :   203.4 secs   av.it.:  10.5
      thresh= 2.415E-07 alpha_mix =  0.700 |ddv_scf|^2 =  2.961E-13

      iter #   8 total cpu time :   206.0 secs   av.it.:  10.5
      thresh= 5.441E-08 alpha_mix =  0.700 |ddv_scf|^2 =  2.453E-14

      iter #   9 total cpu time :   209.0 secs   av.it.:  10.2
      thresh= 1.566E-08 alpha_mix =  0.700 |ddv_scf|^2 =  1.976E-14

      iter #  10 total cpu time :   212.2 secs   av.it.:   9.8
      thresh= 1.406E-08 alpha_mix =  0.700 |ddv_scf|^2 =  1.479E-15

      iter #  11 total cpu time :   213.5 secs   av.it.:  10.1
      thresh= 3.846E-09 alpha_mix =  0.700 |ddv_scf|^2 =  5.995E-17

     End of self-consistent calculation

     Convergence has been achieved 


     Representation #   3 mode #   3

     Self-consistent Calculation

      iter #   1 total cpu time :   218.1 secs   av.it.:   6.3
      thresh= 1.000E-02 alpha_mix =  0.700 |ddv_scf|^2 =  4.968E-06

      iter #   2 total cpu time :   220.8 secs   av.it.:  10.4
      thresh= 2.229E-04 alpha_mix =  0.700 |ddv_scf|^2 =  9.934E-06

      iter #   3 total cpu time :   223.1 secs   av.it.:   9.4
      thresh= 3.152E-04 alpha_mix =  0.700 |ddv_scf|^2 =  1.553E-07

      iter #   4 total cpu time :   225.3 secs   av.it.:   9.8
      thresh= 3.941E-05 alpha_mix =  0.700 |ddv_scf|^2 =  5.817E-10

      iter #   5 total cpu time :   229.0 secs   av.it.:  10.5
      thresh= 2.412E-06 alpha_mix =  0.700 |ddv_scf|^2 =  1.651E-10

      iter #   6 total cpu time :   231.3 secs   av.it.:  10.2
      thresh= 1.285E-06 alpha_mix =  0.700 |ddv_scf|^2 =  3.635E-12

      iter #   7 total cpu time :   235.0 secs   av.it.:  10.5
      thresh= 1.907E-07 alpha_mix =  0.700 |ddv_scf|^2 =  1.258E-13

      iter #   8 total cpu time :   238.5 secs   av.it.:  10.6
      thresh= 3.547E-08 alpha_mix =  0.700 |ddv_scf|^2 =  1.592E-14

      iter #   9 total cpu time :   241.6 secs   av.it.:  10.3
      thresh= 1.262E-08 alpha_mix =  0.700 |ddv_scf|^2 =  1.034E-14

      iter #  10 total cpu time :   243.0 secs   av.it.:   9.5
      thresh= 1.017E-08 alpha_mix =  0.700 |ddv_scf|^2 =  2.419E-16

     End of self-consistent calculation

     Convergence has been achieved 


     Representation #   4 mode #   4

     Self-consistent Calculation

      iter #   1 total cpu time :   247.7 secs   av.it.:   6.3
      thresh= 1.000E-02 alpha_mix =  0.700 |ddv_scf|^2 =  4.531E-06

      iter #   2 total cpu time :   250.5 secs   av.it.:  10.6
      thresh= 2.129E-04 alpha_mix =  0.700 |ddv_scf|^2 =  8.806E-06

      iter #   3 total cpu time :   253.6 secs   av.it.:   9.6
      thresh= 2.967E-04 alpha_mix =  0.700 |ddv_scf|^2 =  1.545E-07

      iter #   4 total cpu time :   256.5 secs   av.it.:   9.9
      thresh= 3.930E-05 alpha_mix =  0.700 |ddv_scf|^2 =  7.812E-10

      iter #   5 total cpu time :   261.4 secs   av.it.:  10.4
      thresh= 2.795E-06 alpha_mix =  0.700 |ddv_scf|^2 =  1.933E-10

      iter #   6 total cpu time :   264.6 secs   av.it.:  10.2
      thresh= 1.390E-06 alpha_mix =  0.700 |ddv_scf|^2 =  5.373E-12

      iter #   7 total cpu time :   266.9 secs   av.it.:  10.6
      thresh= 2.318E-07 alpha_mix =  0.700 |ddv_scf|^2 =  2.502E-13

      iter #   8 total cpu time :   270.0 secs   av.it.:  10.5
      thresh= 5.002E-08 alpha_mix =  0.700 |ddv_scf|^2 =  1.730E-14

      iter #   9 total cpu time :   272.4 secs   av.it.:  10.3
      thresh= 1.315E-08 alpha_mix =  0.700 |ddv_scf|^2 =  9.733E-15

      iter #  10 total cpu time :   274.1 secs   av.it.:   9.8
      thresh= 9.866E-09 alpha_mix =  0.700 |ddv_scf|^2 =  6.090E-16

     End of self-consistent calculation

     Convergence has been achieved 


     Representation #   5 mode #   5

     Self-consistent Calculation

      iter #   1 total cpu time :   280.8 secs   av.it.:   6.0
      thresh= 1.000E-02 alpha_mix =  0.700 |ddv_scf|^2 =  6.809E-07

      iter #   2 total cpu time :   282.4 secs   av.it.:  10.3
      thresh= 8.251E-05 alpha_mix =  0.700 |ddv_scf|^2 =  1.580E-07

      iter #   3 total cpu time :   285.7 secs   av.it.:  10.0
      thresh= 3.975E-05 alpha_mix =  0.700 |ddv_scf|^2 =  3.437E-10

      iter #   4 total cpu time :   289.4 secs   av.it.:  10.3
      thresh= 1.854E-06 alpha_mix =  0.700 |ddv_scf|^2 =  7.465E-13

      iter #   5 total cpu time :   291.9 secs   av.it.:  10.4
      thresh= 8.640E-08 alpha_mix =  0.700 |ddv_scf|^2 =  1.218E-14

      iter #   6 total cpu time :   293.5 secs   av.it.:  10.4
      thresh= 1.104E-08 alpha_mix =  0.700 |ddv_scf|^2 =  1.912E-16

     End of self-consistent calculation

     Convergence has been achieved 


     Representation #   6 mode #   6

     Self-consistent Calculation

      iter #   1 total cpu time :   296.2 secs   av.it.:   6.0
      thresh= 1.000E-02 alpha_mix =  0.700 |ddv_scf|^2 =  6.809E-07

      iter #   2 total cpu time :   299.2 secs   av.it.:  10.3
      thresh= 8.251E-05 alpha_mix =  0.700 |ddv_scf|^2 =  1.580E-07

      iter #   3 total cpu time :   302.4 secs   av.it.:  10.0
      thresh= 3.975E-05 alpha_mix =  0.700 |ddv_scf|^2 =  3.437E-10

      iter #   4 total cpu time :   305.3 secs   av.it.:  10.3
      thresh= 1.854E-06 alpha_mix =  0.700 |ddv_scf|^2 =  7.465E-13

      iter #   5 total cpu time :   308.5 secs   av.it.:  10.4
      thresh= 8.640E-08 alpha_mix =  0.700 |ddv_scf|^2 =  1.218E-14

      iter #   6 total cpu time :   310.7 secs   av.it.:  10.4
      thresh= 1.104E-08 alpha_mix =  0.700 |ddv_scf|^2 =  1.912E-16

     End of self-consistent calculation

     Convergence has been achieved 
 
     Number of q in the star =   24
     List of q in the star:
          1   0.833333333  -0.166666667   0.833333333
          2   0.833333333  -0.166666667  -0.833333333
          3  -0.833333333  -0.166666667   0.833333333
          4  -0.833333333  -0.166666667  -0.833333333
          5  -0.833333333   0.166666667  -0.833333333
          6  -0.833333333   0.166666667   0.833333333
          7   0.833333333   0.166666667   0.833333333
          8   0.833333333   0.166666667  -0.833333333
          9  -0.166666667   0.833333333   0.833333333
         10   0.166666667   0.833333333  -0.833333333
         11  -0.166666667  -0.833333333  -0.833333333
         12  -0.166666667   0.833333333  -0.833333333
         13   0.833333333   0.833333333  -0.166666667
         14   0.833333333  -0.833333333   0.166666667
         15  -0.833333333  -0.833333333  -0.166666667
         16  -0.833333333   0.833333333   0.166666667
         17   0.166666667  -0.833333333   0.833333333
         18  -0.833333333   0.833333333  -0.166666667
         19   0.166666667   0.833333333   0.833333333
         20  -0.166666667  -0.833333333   0.833333333
         21  -0.833333333  -0.833333333   0.166666667
         22   0.833333333   0.833333333   0.166666667
         23   0.166666667  -0.833333333  -0.833333333
         24   0.833333333  -0.833333333  -0.166666667

     Diagonalizing the dynamical matrix

     q = (    0.833333333  -0.166666667   0.833333333 ) 

 **************************************************************************
     freq (    1) =       4.143211 [THz] =     138.202658 [cm-1]
     freq (    2) =       5.444555 [THz] =     181.610794 [cm-1]
     freq (    3) =      10.258703 [THz] =     342.193502 [cm-1]
     freq (    4) =      12.504352 [THz] =     417.100293 [cm-1]
     freq (    5) =      13.907247 [THz] =     463.895836 [cm-1]
     freq (    6) =      14.207700 [THz] =     473.917847 [cm-1]
 **************************************************************************

     Mode symmetry, C_s (m)     point group:

     freq (   1-   1) =        138.2  [cm-1]   --> A''                
     freq (   2-   2) =        181.6  [cm-1]   --> A'                 
     freq (   3-   3) =        342.2  [cm-1]   --> A'                 
     freq (   4-   4) =        417.1  [cm-1]   --> A'                 
     freq (   5-   5) =        463.9  [cm-1]   --> A''                
     freq (   6-   6) =        473.9  [cm-1]   --> A'                 

     Calculation of q =    0.6666667  -0.0000000   0.6666667
 
     Parallelization info
     --------------------
     sticks:   dense  smooth     PW     G-vecs:    dense   smooth      PW
     Min         501     501    174                10436    10436    2055
     Max         502     502    175                10439    10439    2056
     Sum        1003    1003    349                20875    20875    4111
 
     Using Slab Decomposition
 

     Title: 
     default                                                                    


     bravais-lattice index     =            2
     lattice parameter (alat)  =      10.1899  a.u.
     unit-cell volume          =     264.5151 (a.u.)^3
     number of atoms/cell      =            2
     number of atomic types    =            1
     number of electrons       =         8.00
     number of Kohn-Sham states=            4
     kinetic-energy cutoff     =      70.0000  Ry
     charge density cutoff     =     280.0000  Ry
     Exchange-correlation= PW
                           (   1   4   0   0   0   0   0)

     celldm(1)=  10.189905  celldm(2)=   0.000000  celldm(3)=   0.000000
     celldm(4)=   0.000000  celldm(5)=   0.000000  celldm(6)=   0.000000

     crystal axes: (cart. coord. in units of alat)
               a(1) = (  -0.500000   0.000000   0.500000 )  
               a(2) = (   0.000000   0.500000   0.500000 )  
               a(3) = (  -0.500000   0.500000   0.000000 )  

     reciprocal axes: (cart. coord. in units 2 pi/alat)
               b(1) = ( -1.000000 -1.000000  1.000000 )  
               b(2) = (  1.000000  1.000000  1.000000 )  
               b(3) = ( -1.000000  1.000000 -1.000000 )  


     PseudoPot. # 1 for Si read from file:
     /fastscratch/tsievers/si_ph_benchmark_images//pseudos/Si.nc.UPF
     MD5 check sum: 9e2d726316af3d4752eea8ab0afbb951
     Pseudo is Norm-conserving + core correction, Zval =  4.0
     Generated using ONCVPSP code by D. R. Hamann
     Using radial grid of 1510 points,  6 beta functions with: 
                l(1) =   0
                l(2) =   0
                l(3) =   1
                l(4) =   1
                l(5) =   2
                l(6) =   2

     atomic species   valence    mass     pseudopotential
        Si             4.00    28.08550     Si( 1.00)

     48 Sym. Ops., with inversion, found



   Cartesian axes

     site n.     atom                  positions (alat units)
         1           Si  tau(   1) = (   0.0000000   0.0000000   0.0000000  )
         2           Si  tau(   2) = (  -0.2500000   0.2500000   0.2500000  )

     number of k points=   468

     Number of k-points >= 100: set verbosity='high' to print them.

     Dense  grid:    20875 G-vectors     FFT dimensions: (  40,  40,  40)

     Estimated max dynamical RAM per process >       6.43 MB

     Estimated total dynamical RAM >     540.00 MB

     The potential is recalculated from file :
     /fastscratch/tsievers/QE_TMP_DIR/_ph1/si_ph_bench_nimages_2_n_procs_168_0.save/charge-density

     Starting wfcs are    8 atomic wfcs

     Band Structure Calculation
     Davidson diagonalization with overlap

     ethr =  1.25E-10,  avg # of iterations = 12.8

     total cpu time spent up to now is       14.6 secs

     End of band structure calculation

     Number of k-points >= 100: set verbosity='high' to print the bands.

     highest occupied level (ev):     6.1106

     Writing config to output data dir /fastscratch/tsievers/QE_TMP_DIR/_ph1/si_ph_bench_nimages_2_n_procs_168_0.save/

     default                                                                    

     bravais-lattice index     =            2
     lattice parameter (alat)  =      10.1899  a.u.
     unit-cell volume          =     264.5151 (a.u.)^3
     number of atoms/cell      =            2
     number of atomic types    =            1
     kinetic-energy cut-off    =      70.0000  Ry
     charge density cut-off    =     280.0000  Ry
     convergence threshold     =      1.0E-15
     beta                      =       0.7000
     number of iterations used =            4
     Exchange-correlation= PW
                           (   1   4   0   0   0   0   0)


     celldm(1)=   10.18990  celldm(2)=    0.00000  celldm(3)=    0.00000
     celldm(4)=    0.00000  celldm(5)=    0.00000  celldm(6)=    0.00000

     crystal axes: (cart. coord. in units of alat)
               a(1) = ( -0.5000  0.0000  0.5000 )  
               a(2) = (  0.0000  0.5000  0.5000 )  
               a(3) = ( -0.5000  0.5000  0.0000 )  

     reciprocal axes: (cart. coord. in units 2 pi/alat)
               b(1) = ( -1.0000 -1.0000  1.0000 )  
               b(2) = (  1.0000  1.0000  1.0000 )  
               b(3) = ( -1.0000  1.0000 -1.0000 )  


     Atoms inside the unit cell: 

     Cartesian axes

     site n.  atom      mass           positions (alat units)
        1     Si  28.0855   tau(    1) = (    0.00000    0.00000    0.00000  )
        2     Si  28.0855   tau(    2) = (   -0.25000    0.25000    0.25000  )

     Computing dynamical matrix for 
                    q = (   0.6666667  -0.0000000   0.6666667 )
 
      4 Sym.Ops. (no q -> -q+G )


     G cutoff =  736.4420  (  10439 G-vectors)     FFT grid: ( 40, 40, 40)
     number of k points=   468

     PseudoPot. # 1 for Si read from file:
     /fastscratch/tsievers/si_ph_benchmark_images//pseudos/Si.nc.UPF
     MD5 check sum: 9e2d726316af3d4752eea8ab0afbb951
     Pseudo is Norm-conserving + core correction, Zval =  4.0
     Generated using ONCVPSP code by D. R. Hamann
     Using radial grid of 1510 points,  6 beta functions with: 
                l(1) =   0
                l(2) =   0
                l(3) =   1
                l(4) =   1
                l(5) =   2
                l(6) =   2

     Mode symmetry, C_2v (mm2)  point group:


     Atomic displacements:
     There are    6 irreducible representations

     Representation     1      1 modes -  To be done

     Representation     2      1 modes -  To be done

     Representation     3      1 modes -  To be done

     Representation     4      1 modes -  To be done

     Representation     5      1 modes -  To be done

     Representation     6      1 modes -  To be done



     Alpha used in Ewald sum =   2.8000
     PHONON       :   3m 6.09s CPU   5m15.96s WALL



     Representation #   1 mode #   1

     Self-consistent Calculation

      iter #   1 total cpu time :   317.0 secs   av.it.:   6.3
      thresh= 1.000E-02 alpha_mix =  0.700 |ddv_scf|^2 =  4.556E-06

      iter #   2 total cpu time :   319.6 secs   av.it.:  10.5
      thresh= 2.134E-04 alpha_mix =  0.700 |ddv_scf|^2 =  6.181E-06

      iter #   3 total cpu time :   322.2 secs   av.it.:   9.7
      thresh= 2.486E-04 alpha_mix =  0.700 |ddv_scf|^2 =  8.667E-08

      iter #   4 total cpu time :   324.2 secs   av.it.:   9.8
      thresh= 2.944E-05 alpha_mix =  0.700 |ddv_scf|^2 =  3.358E-10

      iter #   5 total cpu time :   327.8 secs   av.it.:  10.3
      thresh= 1.833E-06 alpha_mix =  0.700 |ddv_scf|^2 =  2.599E-12

      iter #   6 total cpu time :   328.9 secs   av.it.:  10.3
      thresh= 1.612E-07 alpha_mix =  0.700 |ddv_scf|^2 =  2.756E-14

      iter #   7 total cpu time :   332.5 secs   av.it.:  10.5
      thresh= 1.660E-08 alpha_mix =  0.700 |ddv_scf|^2 =  3.508E-15

      iter #   8 total cpu time :   337.6 secs   av.it.:  10.1
      thresh= 5.923E-09 alpha_mix =  0.700 |ddv_scf|^2 =  2.704E-15

      iter #   9 total cpu time :   338.7 secs   av.it.:   9.6
      thresh= 5.200E-09 alpha_mix =  0.700 |ddv_scf|^2 =  1.268E-17

     End of self-consistent calculation

     Convergence has been achieved 


     Representation #   2 mode #   2

     Self-consistent Calculation

      iter #   1 total cpu time :   342.2 secs   av.it.:   6.6
      thresh= 1.000E-02 alpha_mix =  0.700 |ddv_scf|^2 =  1.490E-05

      iter #   2 total cpu time :   344.4 secs   av.it.:  10.4
      thresh= 3.859E-04 alpha_mix =  0.700 |ddv_scf|^2 =  2.600E-05

      iter #   3 total cpu time :   346.7 secs   av.it.:   9.5
      thresh= 5.099E-04 alpha_mix =  0.700 |ddv_scf|^2 =  1.122E-07

      iter #   4 total cpu time :   350.0 secs   av.it.:   9.8
      thresh= 3.350E-05 alpha_mix =  0.700 |ddv_scf|^2 =  5.455E-10

      iter #   5 total cpu time :   352.1 secs   av.it.:  10.0
      thresh= 2.336E-06 alpha_mix =  0.700 |ddv_scf|^2 =  5.761E-12

      iter #   6 total cpu time :   355.6 secs   av.it.:  10.1
      thresh= 2.400E-07 alpha_mix =  0.700 |ddv_scf|^2 =  1.246E-13

      iter #   7 total cpu time :   357.8 secs   av.it.:  10.0
      thresh= 3.529E-08 alpha_mix =  0.700 |ddv_scf|^2 =  1.371E-15

      iter #   8 total cpu time :   362.1 secs   av.it.:  10.4
      thresh= 3.703E-09 alpha_mix =  0.700 |ddv_scf|^2 =  1.056E-15

      iter #   9 total cpu time :   363.5 secs   av.it.:   9.6
      thresh= 3.250E-09 alpha_mix =  0.700 |ddv_scf|^2 =  1.940E-17

     End of self-consistent calculation

     Convergence has been achieved 


     Representation #   3 mode #   3

     Self-consistent Calculation

      iter #   1 total cpu time :   368.9 secs   av.it.:   6.0
      thresh= 1.000E-02 alpha_mix =  0.700 |ddv_scf|^2 =  9.601E-07

      iter #   2 total cpu time :   370.6 secs   av.it.:  10.3
      thresh= 9.798E-05 alpha_mix =  0.700 |ddv_scf|^2 =  1.742E-07

      iter #   3 total cpu time :   372.0 secs   av.it.:  10.0
      thresh= 4.173E-05 alpha_mix =  0.700 |ddv_scf|^2 =  3.661E-10

      iter #   4 total cpu time :   374.5 secs   av.it.:  10.1
      thresh= 1.913E-06 alpha_mix =  0.700 |ddv_scf|^2 =  2.625E-13

      iter #   5 total cpu time :   376.8 secs   av.it.:  10.2
      thresh= 5.123E-08 alpha_mix =  0.700 |ddv_scf|^2 =  8.751E-15

      iter #   6 total cpu time :   377.8 secs   av.it.:  10.1
      thresh= 9.355E-09 alpha_mix =  0.700 |ddv_scf|^2 =  7.738E-17

     End of self-consistent calculation

     Convergence has been achieved 


     Representation #   4 mode #   4

     Self-consistent Calculation

      iter #   1 total cpu time :   381.5 secs   av.it.:   5.2
      thresh= 1.000E-02 alpha_mix =  0.700 |ddv_scf|^2 =  2.013E-08

      iter #   2 total cpu time :   384.9 secs   av.it.:  10.2
      thresh= 1.419E-05 alpha_mix =  0.700 |ddv_scf|^2 =  9.533E-10

      iter #   3 total cpu time :   388.0 secs   av.it.:  10.2
      thresh= 3.088E-06 alpha_mix =  0.700 |ddv_scf|^2 =  6.697E-12

      iter #   4 total cpu time :   391.5 secs   av.it.:   9.9
      thresh= 2.588E-07 alpha_mix =  0.700 |ddv_scf|^2 =  1.370E-13

      iter #   5 total cpu time :   394.5 secs   av.it.:  10.1
      thresh= 3.702E-08 alpha_mix =  0.700 |ddv_scf|^2 =  1.113E-15

      iter #   6 total cpu time :   395.1 secs   av.it.:  10.2
      thresh= 3.336E-09 alpha_mix =  0.700 |ddv_scf|^2 =  2.931E-18

     End of self-consistent calculation

     Convergence has been achieved 


     Representation #   5 mode #   5

     Self-consistent Calculation

      iter #   1 total cpu time :   400.0 secs   av.it.:   5.3
      thresh= 1.000E-02 alpha_mix =  0.700 |ddv_scf|^2 =  1.234E-07

      iter #   2 total cpu time :   402.6 secs   av.it.:  10.6
      thresh= 3.513E-05 alpha_mix =  0.700 |ddv_scf|^2 =  6.864E-08

      iter #   3 total cpu time :   405.1 secs   av.it.:  10.0
      thresh= 2.620E-05 alpha_mix =  0.700 |ddv_scf|^2 =  4.391E-09

      iter #   4 total cpu time :   406.5 secs   av.it.:  10.0
      thresh= 6.627E-06 alpha_mix =  0.700 |ddv_scf|^2 =  5.530E-11

      iter #   5 total cpu time :   409.6 secs   av.it.:  10.4
      thresh= 7.437E-07 alpha_mix =  0.700 |ddv_scf|^2 =  7.586E-13

      iter #   6 total cpu time :   413.2 secs   av.it.:  10.3
      thresh= 8.710E-08 alpha_mix =  0.700 |ddv_scf|^2 =  1.084E-15

      iter #   7 total cpu time :   414.2 secs   av.it.:  10.3
      thresh= 3.292E-09 alpha_mix =  0.700 |ddv_scf|^2 =  4.428E-17

     End of self-consistent calculation

     Convergence has been achieved 


     Representation #   6 mode #   6

     Self-consistent Calculation

      iter #   1 total cpu time :   417.6 secs   av.it.:   6.4
      thresh= 1.000E-02 alpha_mix =  0.700 |ddv_scf|^2 =  6.308E-06

      iter #   2 total cpu time :   421.8 secs   av.it.:  10.4
      thresh= 2.512E-04 alpha_mix =  0.700 |ddv_scf|^2 =  8.090E-06

      iter #   3 total cpu time :   424.7 secs   av.it.:   9.7
      thresh= 2.844E-04 alpha_mix =  0.700 |ddv_scf|^2 =  1.663E-09

      iter #   4 total cpu time :   427.0 secs   av.it.:  10.2
      thresh= 4.078E-06 alpha_mix =  0.700 |ddv_scf|^2 =  7.690E-11

      iter #   5 total cpu time :   430.5 secs   av.it.:  10.4
      thresh= 8.769E-07 alpha_mix =  0.700 |ddv_scf|^2 =  3.539E-13

      iter #   6 total cpu time :   434.6 secs   av.it.:  10.3
      thresh= 5.949E-08 alpha_mix =  0.700 |ddv_scf|^2 =  1.275E-14

      iter #   7 total cpu time :   436.2 secs   av.it.:  10.2
      thresh= 1.129E-08 alpha_mix =  0.700 |ddv_scf|^2 =  4.169E-17

     End of self-consistent calculation

     Convergence has been achieved 
 
     Number of q in the star =   12
     List of q in the star:
          1   0.666666667   0.000000000   0.666666667
          2  -0.666666667   0.000000000  -0.666666667
          3  -0.666666667   0.000000000   0.666666667
          4   0.666666667   0.000000000  -0.666666667
          5   0.000000000   0.666666667   0.666666667
          6   0.000000000   0.666666667  -0.666666667
          7   0.000000000  -0.666666667  -0.666666667
          8   0.666666667   0.666666667   0.000000000
          9   0.666666667  -0.666666667   0.000000000
         10  -0.666666667  -0.666666667   0.000000000
         11  -0.666666667   0.666666667   0.000000000
         12   0.000000000  -0.666666667   0.666666667

     Diagonalizing the dynamical matrix

     q = (    0.666666667  -0.000000000   0.666666667 ) 

 **************************************************************************
     freq (    1) =       4.251837 [THz] =     141.826025 [cm-1]
     freq (    2) =       6.420788 [THz] =     214.174421 [cm-1]
     freq (    3) =      10.134255 [THz] =     338.042355 [cm-1]
     freq (    4) =      11.355101 [THz] =     378.765413 [cm-1]
     freq (    5) =      13.957415 [THz] =     465.569258 [cm-1]
     freq (    6) =      14.514467 [THz] =     484.150511 [cm-1]
 **************************************************************************

     Mode symmetry, C_2v (mm2)  point group:

     freq (   1-   1) =        141.8  [cm-1]   --> B_1  D_3  S_3      
     freq (   2-   2) =        214.2  [cm-1]   --> B_2  D_4  S_4      
     freq (   3-   3) =        338.0  [cm-1]   --> A_1  D_1  S_1      
     freq (   4-   4) =        378.8  [cm-1]   --> B_2  D_4  S_4      
     freq (   5-   5) =        465.6  [cm-1]   --> A_2  D_2  S_2      
     freq (   6-   6) =        484.2  [cm-1]   --> A_1  D_1  S_1      

     Calculation of q =    0.0000000  -1.0000000   0.0000000
 
     Parallelization info
     --------------------
     sticks:   dense  smooth     PW     G-vecs:    dense   smooth      PW
     Min         501     501    168                10436    10436    2007
     Max         502     502    169                10439    10439    2008
     Sum        1003    1003    337                20875    20875    4015
 
     Using Slab Decomposition
 

     Title: 
     default                                                                    


     bravais-lattice index     =            2
     lattice parameter (alat)  =      10.1899  a.u.
     unit-cell volume          =     264.5151 (a.u.)^3
     number of atoms/cell      =            2
     number of atomic types    =            1
     number of electrons       =         8.00
     number of Kohn-Sham states=            4
     kinetic-energy cutoff     =      70.0000  Ry
     charge density cutoff     =     280.0000  Ry
     Exchange-correlation= PW
                           (   1   4   0   0   0   0   0)

     celldm(1)=  10.189905  celldm(2)=   0.000000  celldm(3)=   0.000000
     celldm(4)=   0.000000  celldm(5)=   0.000000  celldm(6)=   0.000000

     crystal axes: (cart. coord. in units of alat)
               a(1) = (  -0.500000   0.000000   0.500000 )  
               a(2) = (   0.000000   0.500000   0.500000 )  
               a(3) = (  -0.500000   0.500000   0.000000 )  

     reciprocal axes: (cart. coord. in units 2 pi/alat)
               b(1) = ( -1.000000 -1.000000  1.000000 )  
               b(2) = (  1.000000  1.000000  1.000000 )  
               b(3) = ( -1.000000  1.000000 -1.000000 )  


     PseudoPot. # 1 for Si read from file:
     /fastscratch/tsievers/si_ph_benchmark_images//pseudos/Si.nc.UPF
     MD5 check sum: 9e2d726316af3d4752eea8ab0afbb951
     Pseudo is Norm-conserving + core correction, Zval =  4.0
     Generated using ONCVPSP code by D. R. Hamann
     Using radial grid of 1510 points,  6 beta functions with: 
                l(1) =   0
                l(2) =   0
                l(3) =   1
                l(4) =   1
                l(5) =   2
                l(6) =   2

     atomic species   valence    mass     pseudopotential
        Si             4.00    28.08550     Si( 1.00)

     48 Sym. Ops., with inversion, found



   Cartesian axes

     site n.     atom                  positions (alat units)
         1           Si  tau(   1) = (   0.0000000   0.0000000   0.0000000  )
         2           Si  tau(   2) = (  -0.2500000   0.2500000   0.2500000  )

     number of k points=   126

     Number of k-points >= 100: set verbosity='high' to print them.

     Dense  grid:    20875 G-vectors     FFT dimensions: (  40,  40,  40)

     Estimated max dynamical RAM per process >       6.43 MB

     Estimated total dynamical RAM >     540.20 MB

     The potential is recalculated from file :
     /fastscratch/tsievers/QE_TMP_DIR/_ph1/si_ph_bench_nimages_2_n_procs_168_0.save/charge-density

     Starting wfcs are    8 atomic wfcs

     Band Structure Calculation
     Davidson diagonalization with overlap

     ethr =  1.25E-10,  avg # of iterations = 12.8

     total cpu time spent up to now is       16.1 secs

     End of band structure calculation

     Number of k-points >= 100: set verbosity='high' to print the bands.

     highest occupied level (ev):     6.1106

     Writing config to output data dir /fastscratch/tsievers/QE_TMP_DIR/_ph1/si_ph_bench_nimages_2_n_procs_168_0.save/

     default                                                                    

     bravais-lattice index     =            2
     lattice parameter (alat)  =      10.1899  a.u.
     unit-cell volume          =     264.5151 (a.u.)^3
     number of atoms/cell      =            2
     number of atomic types    =            1
     kinetic-energy cut-off    =      70.0000  Ry
     charge density cut-off    =     280.0000  Ry
     convergence threshold     =      1.0E-15
     beta                      =       0.7000
     number of iterations used =            4
     Exchange-correlation= PW
                           (   1   4   0   0   0   0   0)


     celldm(1)=   10.18990  celldm(2)=    0.00000  celldm(3)=    0.00000
     celldm(4)=    0.00000  celldm(5)=    0.00000  celldm(6)=    0.00000

     crystal axes: (cart. coord. in units of alat)
               a(1) = ( -0.5000  0.0000  0.5000 )  
               a(2) = (  0.0000  0.5000  0.5000 )  
               a(3) = ( -0.5000  0.5000  0.0000 )  

     reciprocal axes: (cart. coord. in units 2 pi/alat)
               b(1) = ( -1.0000 -1.0000  1.0000 )  
               b(2) = (  1.0000  1.0000  1.0000 )  
               b(3) = ( -1.0000  1.0000 -1.0000 )  


     Atoms inside the unit cell: 

     Cartesian axes

     site n.  atom      mass           positions (alat units)
        1     Si  28.0855   tau(    1) = (    0.00000    0.00000    0.00000  )
        2     Si  28.0855   tau(    2) = (   -0.25000    0.25000    0.25000  )

     Computing dynamical matrix for 
                    q = (   0.0000000  -1.0000000   0.0000000 )
 
     17 Sym.Ops. (with q -> -q+G )


     G cutoff =  736.4420  (  10439 G-vectors)     FFT grid: ( 40, 40, 40)
     number of k points=   126

     PseudoPot. # 1 for Si read from file:
     /fastscratch/tsievers/si_ph_benchmark_images//pseudos/Si.nc.UPF
     MD5 check sum: 9e2d726316af3d4752eea8ab0afbb951
     Pseudo is Norm-conserving + core correction, Zval =  4.0
     Generated using ONCVPSP code by D. R. Hamann
     Using radial grid of 1510 points,  6 beta functions with: 
                l(1) =   0
                l(2) =   0
                l(3) =   1
                l(4) =   1
                l(5) =   2
                l(6) =   2


     Atomic displacements:
     There are    3 irreducible representations

     Representation     1      2 modes -  To be done

     Representation     2      2 modes -  To be done

     Representation     3      2 modes -  To be done



     Alpha used in Ewald sum =   2.8000
     PHONON       :   4m30.81s CPU   7m22.38s WALL



     Representation #   1 modes #   1   2

     Self-consistent Calculation

      iter #   1 total cpu time :   443.3 secs   av.it.:   5.3
      thresh= 1.000E-02 alpha_mix =  0.700 |ddv_scf|^2 =  3.545E-09

      iter #   2 total cpu time :   447.2 secs   av.it.:  11.2
      thresh= 5.954E-06 alpha_mix =  0.700 |ddv_scf|^2 =  1.954E-10

      iter #   3 total cpu time :   450.7 secs   av.it.:  11.3
      thresh= 1.398E-06 alpha_mix =  0.700 |ddv_scf|^2 =  1.326E-12

      iter #   4 total cpu time :   453.0 secs   av.it.:  10.9
      thresh= 1.151E-07 alpha_mix =  0.700 |ddv_scf|^2 =  2.011E-14

      iter #   5 total cpu time :   453.9 secs   av.it.:  11.2
      thresh= 1.418E-08 alpha_mix =  0.700 |ddv_scf|^2 =  3.239E-17

     End of self-consistent calculation

     Convergence has been achieved 


     Representation #   2 modes #   3   4

     Self-consistent Calculation

      iter #   1 total cpu time :   459.4 secs   av.it.:   6.5
      thresh= 1.000E-02 alpha_mix =  0.700 |ddv_scf|^2 =  2.282E-06

      iter #   2 total cpu time :   463.4 secs   av.it.:  11.1
      thresh= 1.511E-04 alpha_mix =  0.700 |ddv_scf|^2 =  3.234E-06

      iter #   3 total cpu time :   467.6 secs   av.it.:  10.4
      thresh= 1.798E-04 alpha_mix =  0.700 |ddv_scf|^2 =  5.615E-10

      iter #   4 total cpu time :   471.2 secs   av.it.:  10.9
      thresh= 2.370E-06 alpha_mix =  0.700 |ddv_scf|^2 =  2.472E-11

      iter #   5 total cpu time :   475.4 secs   av.it.:  11.1
      thresh= 4.972E-07 alpha_mix =  0.700 |ddv_scf|^2 =  2.166E-13

      iter #   6 total cpu time :   479.5 secs   av.it.:  10.9
      thresh= 4.654E-08 alpha_mix =  0.700 |ddv_scf|^2 =  5.054E-15

      iter #   7 total cpu time :   481.0 secs   av.it.:  10.9
      thresh= 7.109E-09 alpha_mix =  0.700 |ddv_scf|^2 =  5.058E-17

     End of self-consistent calculation

     Convergence has been achieved 


     Representation #   3 modes #   5   6

     Self-consistent Calculation

      iter #   1 total cpu time :   485.8 secs   av.it.:   6.4
      thresh= 1.000E-02 alpha_mix =  0.700 |ddv_scf|^2 =  4.201E-07

      iter #   2 total cpu time :   490.2 secs   av.it.:  11.4
      thresh= 6.481E-05 alpha_mix =  0.700 |ddv_scf|^2 =  1.163E-07

      iter #   3 total cpu time :   494.6 secs   av.it.:  11.1
      thresh= 3.410E-05 alpha_mix =  0.700 |ddv_scf|^2 =  1.246E-10

      iter #   4 total cpu time :   498.0 secs   av.it.:  11.2
      thresh= 1.116E-06 alpha_mix =  0.700 |ddv_scf|^2 =  1.018E-13

      iter #   5 total cpu time :   501.9 secs   av.it.:  11.1
      thresh= 3.190E-08 alpha_mix =  0.700 |ddv_scf|^2 =  5.394E-15

      iter #   6 total cpu time :   503.7 secs   av.it.:  11.1
      thresh= 7.344E-09 alpha_mix =  0.700 |ddv_scf|^2 =  9.093E-18

     End of self-consistent calculation

     Convergence has been achieved 
 
     Number of q in the star =    3
     List of q in the star:
          1   0.000000000  -1.000000000   0.000000000
          2  -1.000000000   0.000000000   0.000000000
          3   0.000000000   0.000000000  -1.000000000

     Diagonalizing the dynamical matrix

     q = (    0.000000000  -1.000000000   0.000000000 ) 

 **************************************************************************
     freq (    1) =       4.101580 [THz] =     136.813989 [cm-1]
     freq (    2) =       4.101580 [THz] =     136.813989 [cm-1]
     freq (    3) =      12.261816 [THz] =     409.010165 [cm-1]
     freq (    4) =      12.261816 [THz] =     409.010165 [cm-1]
     freq (    5) =      13.855558 [THz] =     462.171661 [cm-1]
     freq (    6) =      13.855558 [THz] =     462.171661 [cm-1]
 **************************************************************************

     Calculation of q =    0.6666667  -0.3333333   1.0000000
 
     Parallelization info
     --------------------
     sticks:   dense  smooth     PW     G-vecs:    dense   smooth      PW
     Min         501     501    180                10436    10436    2238
     Max         502     502    181                10439    10439    2239
     Sum        1003    1003    361                20875    20875    4477
 
     Using Slab Decomposition
 

     Title: 
     default                                                                    


     bravais-lattice index     =            2
     lattice parameter (alat)  =      10.1899  a.u.
     unit-cell volume          =     264.5151 (a.u.)^3
     number of atoms/cell      =            2
     number of atomic types    =            1
     number of electrons       =         8.00
     number of Kohn-Sham states=            4
     kinetic-energy cutoff     =      70.0000  Ry
     charge density cutoff     =     280.0000  Ry
     Exchange-correlation= PW
                           (   1   4   0   0   0   0   0)

     celldm(1)=  10.189905  celldm(2)=   0.000000  celldm(3)=   0.000000
     celldm(4)=   0.000000  celldm(5)=   0.000000  celldm(6)=   0.000000

     crystal axes: (cart. coord. in units of alat)
               a(1) = (  -0.500000   0.000000   0.500000 )  
               a(2) = (   0.000000   0.500000   0.500000 )  
               a(3) = (  -0.500000   0.500000   0.000000 )  

     reciprocal axes: (cart. coord. in units 2 pi/alat)
               b(1) = ( -1.000000 -1.000000  1.000000 )  
               b(2) = (  1.000000  1.000000  1.000000 )  
               b(3) = ( -1.000000  1.000000 -1.000000 )  


     PseudoPot. # 1 for Si read from file:
     /fastscratch/tsievers/si_ph_benchmark_images//pseudos/Si.nc.UPF
     MD5 check sum: 9e2d726316af3d4752eea8ab0afbb951
     Pseudo is Norm-conserving + core correction, Zval =  4.0
     Generated using ONCVPSP code by D. R. Hamann
     Using radial grid of 1510 points,  6 beta functions with: 
                l(1) =   0
                l(2) =   0
                l(3) =   1
                l(4) =   1
                l(5) =   2
                l(6) =   2

     atomic species   valence    mass     pseudopotential
        Si             4.00    28.08550     Si( 1.00)

     48 Sym. Ops., with inversion, found



   Cartesian axes

     site n.     atom                  positions (alat units)
         1           Si  tau(   1) = (   0.0000000   0.0000000   0.0000000  )
         2           Si  tau(   2) = (  -0.2500000   0.2500000   0.2500000  )

     number of k points=   864

     Number of k-points >= 100: set verbosity='high' to print them.

     Dense  grid:    20875 G-vectors     FFT dimensions: (  40,  40,  40)

     Estimated max dynamical RAM per process >       6.44 MB

     Estimated total dynamical RAM >     541.27 MB

     The potential is recalculated from file :
     /fastscratch/tsievers/QE_TMP_DIR/_ph1/si_ph_bench_nimages_2_n_procs_168_0.save/charge-density

     Starting wfcs are    8 atomic wfcs

     Band Structure Calculation
     Davidson diagonalization with overlap

     ethr =  1.25E-10,  avg # of iterations = 12.8

     total cpu time spent up to now is       17.6 secs

     End of band structure calculation

     Number of k-points >= 100: set verbosity='high' to print the bands.

     highest occupied level (ev):     6.1106

     Writing config to output data dir /fastscratch/tsievers/QE_TMP_DIR/_ph1/si_ph_bench_nimages_2_n_procs_168_0.save/

     default                                                                    

     bravais-lattice index     =            2
     lattice parameter (alat)  =      10.1899  a.u.
     unit-cell volume          =     264.5151 (a.u.)^3
     number of atoms/cell      =            2
     number of atomic types    =            1
     kinetic-energy cut-off    =      70.0000  Ry
     charge density cut-off    =     280.0000  Ry
     convergence threshold     =      1.0E-15
     beta                      =       0.7000
     number of iterations used =            4
     Exchange-correlation= PW
                           (   1   4   0   0   0   0   0)


     celldm(1)=   10.18990  celldm(2)=    0.00000  celldm(3)=    0.00000
     celldm(4)=    0.00000  celldm(5)=    0.00000  celldm(6)=    0.00000

     crystal axes: (cart. coord. in units of alat)
               a(1) = ( -0.5000  0.0000  0.5000 )  
               a(2) = (  0.0000  0.5000  0.5000 )  
               a(3) = ( -0.5000  0.5000  0.0000 )  

     reciprocal axes: (cart. coord. in units 2 pi/alat)
               b(1) = ( -1.0000 -1.0000  1.0000 )  
               b(2) = (  1.0000  1.0000  1.0000 )  
               b(3) = ( -1.0000  1.0000 -1.0000 )  


     Atoms inside the unit cell: 

     Cartesian axes

     site n.  atom      mass           positions (alat units)
        1     Si  28.0855   tau(    1) = (    0.00000    0.00000    0.00000  )
        2     Si  28.0855   tau(    2) = (   -0.25000    0.25000    0.25000  )

     Computing dynamical matrix for 
                    q = (   0.6666667  -0.3333333   1.0000000 )
 
      2 Sym.Ops. (no q -> -q+G )


     G cutoff =  736.4420  (  10439 G-vectors)     FFT grid: ( 40, 40, 40)
     number of k points=   864

     PseudoPot. # 1 for Si read from file:
     /fastscratch/tsievers/si_ph_benchmark_images//pseudos/Si.nc.UPF
     MD5 check sum: 9e2d726316af3d4752eea8ab0afbb951
     Pseudo is Norm-conserving + core correction, Zval =  4.0
     Generated using ONCVPSP code by D. R. Hamann
     Using radial grid of 1510 points,  6 beta functions with: 
                l(1) =   0
                l(2) =   0
                l(3) =   1
                l(4) =   1
                l(5) =   2
                l(6) =   2


     Atomic displacements:
     There are    6 irreducible representations

     Representation     1      1 modes -  To be done

     Representation     2      1 modes -  To be done

     Representation     3      1 modes -  To be done

     Representation     4      1 modes -  To be done

     Representation     5      1 modes -  To be done

     Representation     6      1 modes -  To be done



     Alpha used in Ewald sum =   2.8000
     PHONON       :   5m17.65s CPU   8m30.21s WALL



     Representation #   1 mode #   1

     Self-consistent Calculation

      iter #   1 total cpu time :   510.8 secs   av.it.:   6.1
      thresh= 1.000E-02 alpha_mix =  0.700 |ddv_scf|^2 =  1.830E-06

      iter #   2 total cpu time :   513.0 secs   av.it.:  10.6
      thresh= 1.353E-04 alpha_mix =  0.700 |ddv_scf|^2 =  5.633E-06

      iter #   3 total cpu time :   515.7 secs   av.it.:   9.3
      thresh= 2.373E-04 alpha_mix =  0.700 |ddv_scf|^2 =  1.561E-07

      iter #   4 total cpu time :   518.7 secs   av.it.:   9.8
      thresh= 3.951E-05 alpha_mix =  0.700 |ddv_scf|^2 =  2.973E-10

      iter #   5 total cpu time :   523.3 secs   av.it.:  10.6
      thresh= 1.724E-06 alpha_mix =  0.700 |ddv_scf|^2 =  1.811E-11

      iter #   6 total cpu time :   525.7 secs   av.it.:  10.3
      thresh= 4.256E-07 alpha_mix =  0.700 |ddv_scf|^2 =  9.313E-14

      iter #   7 total cpu time :   528.2 secs   av.it.:  10.5
      thresh= 3.052E-08 alpha_mix =  0.700 |ddv_scf|^2 =  3.948E-15

      iter #   8 total cpu time :   528.9 secs   av.it.:  10.7
      thresh= 6.284E-09 alpha_mix =  0.700 |ddv_scf|^2 =  1.673E-16

     End of self-consistent calculation

     Convergence has been achieved 


     Representation #   2 mode #   2

     Self-consistent Calculation

      iter #   1 total cpu time :   531.7 secs   av.it.:   5.9
      thresh= 1.000E-02 alpha_mix =  0.700 |ddv_scf|^2 =  3.838E-07

      iter #   2 total cpu time :   535.2 secs   av.it.:  10.8
      thresh= 6.196E-05 alpha_mix =  0.700 |ddv_scf|^2 =  2.117E-07

      iter #   3 total cpu time :   537.6 secs   av.it.:  10.2
      thresh= 4.601E-05 alpha_mix =  0.700 |ddv_scf|^2 =  2.062E-09

      iter #   4 total cpu time :   539.8 secs   av.it.:  10.5
      thresh= 4.540E-06 alpha_mix =  0.700 |ddv_scf|^2 =  1.331E-10

      iter #   5 total cpu time :   543.3 secs   av.it.:  10.5
      thresh= 1.154E-06 alpha_mix =  0.700 |ddv_scf|^2 =  1.230E-12

      iter #   6 total cpu time :   546.4 secs   av.it.:  10.6
      thresh= 1.109E-07 alpha_mix =  0.700 |ddv_scf|^2 =  2.681E-14

      iter #   7 total cpu time :   551.0 secs   av.it.:  10.7
      thresh= 1.637E-08 alpha_mix =  0.700 |ddv_scf|^2 =  1.105E-15

      iter #   8 total cpu time :   552.2 secs   av.it.:  10.7
      thresh= 3.324E-09 alpha_mix =  0.700 |ddv_scf|^2 =  3.349E-17

     End of self-consistent calculation

     Convergence has been achieved 


     Representation #   3 mode #   3

     Self-consistent Calculation

      iter #   1 total cpu time :   554.7 secs   av.it.:   6.3
      thresh= 1.000E-02 alpha_mix =  0.700 |ddv_scf|^2 =  2.504E-06

      iter #   2 total cpu time :   557.8 secs   av.it.:  10.7
      thresh= 1.582E-04 alpha_mix =  0.700 |ddv_scf|^2 =  1.676E-06

      iter #   3 total cpu time :   560.2 secs   av.it.:  10.1
      thresh= 1.295E-04 alpha_mix =  0.700 |ddv_scf|^2 =  3.982E-09

      iter #   4 total cpu time :   562.8 secs   av.it.:  10.5
      thresh= 6.310E-06 alpha_mix =  0.700 |ddv_scf|^2 =  1.743E-10

      iter #   5 total cpu time :   565.0 secs   av.it.:  10.5
      thresh= 1.320E-06 alpha_mix =  0.700 |ddv_scf|^2 =  2.510E-12

      iter #   6 total cpu time :   567.6 secs   av.it.:  10.7
      thresh= 1.584E-07 alpha_mix =  0.700 |ddv_scf|^2 =  2.866E-14

      iter #   7 total cpu time :   571.2 secs   av.it.:  10.5
      thresh= 1.693E-08 alpha_mix =  0.700 |ddv_scf|^2 =  1.500E-15

      iter #   8 total cpu time :   572.3 secs   av.it.:  10.6
      thresh= 3.874E-09 alpha_mix =  0.700 |ddv_scf|^2 =  1.340E-17

     End of self-consistent calculation

     Convergence has been achieved 


     Representation #   4 mode #   4

     Self-consistent Calculation

      iter #   1 total cpu time :   576.0 secs   av.it.:   6.8
      thresh= 1.000E-02 alpha_mix =  0.700 |ddv_scf|^2 =  6.054E-05

      iter #   2 total cpu time :   579.7 secs   av.it.:  10.2
      thresh= 7.781E-04 alpha_mix =  0.700 |ddv_scf|^2 =  2.929E-04

      iter #   3 total cpu time :   582.8 secs   av.it.:   9.0
      thresh= 1.711E-03 alpha_mix =  0.700 |ddv_scf|^2 =  5.314E-08

      iter #   4 total cpu time :   585.8 secs   av.it.:  10.2
      thresh= 2.305E-05 alpha_mix =  0.700 |ddv_scf|^2 =  1.293E-09

      iter #   5 total cpu time :   588.2 secs   av.it.:  10.1
      thresh= 3.596E-06 alpha_mix =  0.700 |ddv_scf|^2 =  1.175E-11

      iter #   6 total cpu time :   590.5 secs   av.it.:  10.3
      thresh= 3.427E-07 alpha_mix =  0.700 |ddv_scf|^2 =  2.799E-13

      iter #   7 total cpu time :   593.0 secs   av.it.:   9.7
      thresh= 5.291E-08 alpha_mix =  0.700 |ddv_scf|^2 =  3.011E-14

      iter #   8 total cpu time :   596.1 secs   av.it.:   9.4
      thresh= 1.735E-08 alpha_mix =  0.700 |ddv_scf|^2 =  7.202E-15

      iter #   9 total cpu time :   597.1 secs   av.it.:   9.5
      thresh= 8.486E-09 alpha_mix =  0.700 |ddv_scf|^2 =  1.986E-16

     End of self-consistent calculation

     Convergence has been achieved 


     Representation #   5 mode #   5

     Self-consistent Calculation

      iter #   1 total cpu time :   600.0 secs   av.it.:   6.1
      thresh= 1.000E-02 alpha_mix =  0.700 |ddv_scf|^2 =  1.110E-06

      iter #   2 total cpu time :   602.9 secs   av.it.:  10.6
      thresh= 1.054E-04 alpha_mix =  0.700 |ddv_scf|^2 =  1.021E-06

      iter #   3 total cpu time :   605.2 secs   av.it.:   9.8
      thresh= 1.010E-04 alpha_mix =  0.700 |ddv_scf|^2 =  2.772E-07

      iter #   4 total cpu time :   607.5 secs   av.it.:   9.2
      thresh= 5.265E-05 alpha_mix =  0.700 |ddv_scf|^2 =  4.269E-10

      iter #   5 total cpu time :   611.5 secs   av.it.:  10.5
      thresh= 2.066E-06 alpha_mix =  0.700 |ddv_scf|^2 =  2.704E-11

      iter #   6 total cpu time :   615.2 secs   av.it.:  10.2
      thresh= 5.200E-07 alpha_mix =  0.700 |ddv_scf|^2 =  7.173E-14

      iter #   7 total cpu time :   617.7 secs   av.it.:  10.6
      thresh= 2.678E-08 alpha_mix =  0.700 |ddv_scf|^2 =  1.853E-14

      iter #   8 total cpu time :   620.5 secs   av.it.:  10.2
      thresh= 1.361E-08 alpha_mix =  0.700 |ddv_scf|^2 =  3.995E-14

      iter #   9 total cpu time :   621.3 secs   av.it.:   9.4
      thresh= 1.999E-08 alpha_mix =  0.700 |ddv_scf|^2 =  1.272E-16

     End of self-consistent calculation

     Convergence has been achieved 


     Representation #   6 mode #   6

     Self-consistent Calculation

      iter #   1 total cpu time :   623.6 secs   av.it.:   6.2
      thresh= 1.000E-02 alpha_mix =  0.700 |ddv_scf|^2 =  9.556E-07

      iter #   2 total cpu time :   626.3 secs   av.it.:  10.8
      thresh= 9.775E-05 alpha_mix =  0.700 |ddv_scf|^2 =  3.263E-07

      iter #   3 total cpu time :   628.2 secs   av.it.:  10.4
      thresh= 5.712E-05 alpha_mix =  0.700 |ddv_scf|^2 =  7.154E-09

      iter #   4 total cpu time :   632.0 secs   av.it.:  10.3
      thresh= 8.458E-06 alpha_mix =  0.700 |ddv_scf|^2 =  1.852E-10

      iter #   5 total cpu time :   633.8 secs   av.it.:  10.6
      thresh= 1.361E-06 alpha_mix =  0.700 |ddv_scf|^2 =  1.924E-12

      iter #   6 total cpu time :   637.4 secs   av.it.:  10.6
      thresh= 1.387E-07 alpha_mix =  0.700 |ddv_scf|^2 =  1.791E-14

      iter #   7 total cpu time :   638.8 secs   av.it.:  10.7
      thresh= 1.338E-08 alpha_mix =  0.700 |ddv_scf|^2 =  8.304E-16

     End of self-consistent calculation

     Convergence has been achieved 
 
     Number of q in the star =   24
     List of q in the star:
          1   0.666666667  -0.333333333   1.000000000
          2   1.000000000   0.333333333   0.666666667
          3   0.666666667   0.333333333   1.000000000
          4  -0.666666667  -0.333333333  -1.000000000
          5  -1.000000000  -0.333333333  -0.666666667
          6   1.000000000  -0.333333333   0.666666667
          7  -0.666666667   0.333333333  -1.000000000
          8   1.000000000   0.333333333  -0.666666667
          9  -0.333333333   1.000000000   0.666666667
         10   0.333333333   1.000000000  -0.666666667
         11  -0.333333333  -1.000000000  -0.666666667
         12  -0.333333333   0.666666667  -1.000000000
         13   1.000000000   0.666666667  -0.333333333
         14   1.000000000  -0.666666667   0.333333333
         15  -1.000000000  -0.666666667  -0.333333333
         16  -1.000000000   0.666666667   0.333333333
         17   0.333333333  -0.666666667   1.000000000
         18   0.333333333  -1.000000000   0.666666667
         19   0.333333333   0.666666667   1.000000000
[...]

      iter #   4 total cpu time :   741.1 secs   av.it.:  10.1
      thresh= 2.795E-05 alpha_mix =  0.700 |ddv_scf|^2 =  3.929E-10

      iter #   5 total cpu time :   743.9 secs   av.it.:  10.5
      thresh= 1.982E-06 alpha_mix =  0.700 |ddv_scf|^2 =  9.970E-12

      iter #   6 total cpu time :   746.6 secs   av.it.:  10.6
      thresh= 3.158E-07 alpha_mix =  0.700 |ddv_scf|^2 =  5.881E-14

      iter #   7 total cpu time :   750.2 secs   av.it.:  10.5
      thresh= 2.425E-08 alpha_mix =  0.700 |ddv_scf|^2 =  7.187E-15

      iter #   8 total cpu time :   752.9 secs   av.it.:  10.5
      thresh= 8.478E-09 alpha_mix =  0.700 |ddv_scf|^2 =  2.253E-15

      iter #   9 total cpu time :   753.8 secs   av.it.:  10.1
      thresh= 4.746E-09 alpha_mix =  0.700 |ddv_scf|^2 =  3.477E-16

     End of self-consistent calculation

     Convergence has been achieved 


     Representation #   6 mode #   6

     Self-consistent Calculation

      iter #   1 total cpu time :   756.4 secs   av.it.:   6.3
      thresh= 1.000E-02 alpha_mix =  0.700 |ddv_scf|^2 =  2.529E-06

      iter #   2 total cpu time :   759.6 secs   av.it.:  10.7
      thresh= 1.590E-04 alpha_mix =  0.700 |ddv_scf|^2 =  2.774E-06

      iter #   3 total cpu time :   762.1 secs   av.it.:   9.8
      thresh= 1.666E-04 alpha_mix =  0.700 |ddv_scf|^2 =  6.791E-08

      iter #   4 total cpu time :   766.6 secs   av.it.:  10.0
      thresh= 2.606E-05 alpha_mix =  0.700 |ddv_scf|^2 =  2.217E-10

      iter #   5 total cpu time :   770.0 secs   av.it.:  10.4
      thresh= 1.489E-06 alpha_mix =  0.700 |ddv_scf|^2 =  4.179E-12

      iter #   6 total cpu time :   772.3 secs   av.it.:  10.5
      thresh= 2.044E-07 alpha_mix =  0.700 |ddv_scf|^2 =  1.949E-14

      iter #   7 total cpu time :   774.7 secs   av.it.:  10.5
      thresh= 1.396E-08 alpha_mix =  0.700 |ddv_scf|^2 =  1.127E-15

      iter #   8 total cpu time :   775.5 secs   av.it.:  10.7
      thresh= 3.357E-09 alpha_mix =  0.700 |ddv_scf|^2 =  4.509E-17

     End of self-consistent calculation

     Convergence has been achieved 
 
     Number of q in the star =   24
     List of q in the star:
          1   0.500000000  -0.166666667   0.833333333
          2   0.833333333   0.166666667   0.500000000
          3   0.500000000   0.166666667   0.833333333
          4  -0.500000000  -0.166666667  -0.833333333
          5  -0.500000000  -0.166666667   0.833333333
          6  -0.833333333  -0.166666667  -0.500000000
          7   0.833333333  -0.166666667   0.500000000
          8  -0.500000000   0.166666667  -0.833333333
          9  -0.500000000   0.166666667   0.833333333
         10   0.833333333  -0.166666667  -0.500000000
         11  -0.833333333  -0.166666667   0.500000000
         12   0.500000000   0.166666667  -0.833333333
         13  -0.833333333   0.166666667   0.500000000
         14   0.833333333   0.166666667  -0.500000000
         15  -0.833333333   0.166666667  -0.500000000
         16  -0.166666667   0.500000000  -0.833333333
         17   0.833333333   0.500000000  -0.166666667
         18  -0.833333333  -0.500000000  -0.166666667
         19  -0.833333333   0.500000000   0.166666667
         20   0.166666667  -0.500000000   0.833333333
         21  -0.166666667   0.500000000   0.833333333
         22   0.166666667   0.500000000  -0.833333333
         23  -0.166666667  -0.500000000  -0.833333333
         24  -0.500000000   0.833333333   0.166666667

     Diagonalizing the dynamical matrix

     q = (    0.500000000  -0.166666667   0.833333333 ) 

 **************************************************************************
     freq (    1) =       5.052013 [THz] =     168.517021 [cm-1]
     freq (    2) =       6.066622 [THz] =     202.360720 [cm-1]
     freq (    3) =       9.812896 [THz] =     327.322968 [cm-1]
     freq (    4) =      11.453243 [THz] =     382.039053 [cm-1]
     freq (    5) =      14.041872 [THz] =     468.386444 [cm-1]
     freq (    6) =      14.270928 [THz] =     476.026917 [cm-1]
 **************************************************************************

     Calculation of q =   -0.3333333  -1.0000000   0.0000000
 
     Parallelization info
     --------------------
     sticks:   dense  smooth     PW     G-vecs:    dense   smooth      PW
     Min         501     501    174                10436    10436    2139
     Max         502     502    175                10439    10439    2140
     Sum        1003    1003    349                20875    20875    4279
 
     Using Slab Decomposition
 

     Title: 
     default                                                                    


     bravais-lattice index     =            2
     lattice parameter (alat)  =      10.1899  a.u.
     unit-cell volume          =     264.5151 (a.u.)^3
     number of atoms/cell      =            2
     number of atomic types    =            1
     number of electrons       =         8.00
     number of Kohn-Sham states=            4
     kinetic-energy cutoff     =      70.0000  Ry
     charge density cutoff     =     280.0000  Ry
     Exchange-correlation= PW
                           (   1   4   0   0   0   0   0)

     celldm(1)=  10.189905  celldm(2)=   0.000000  celldm(3)=   0.000000
     celldm(4)=   0.000000  celldm(5)=   0.000000  celldm(6)=   0.000000

     crystal axes: (cart. coord. in units of alat)
               a(1) = (  -0.500000   0.000000   0.500000 )  
               a(2) = (   0.000000   0.500000   0.500000 )  
               a(3) = (  -0.500000   0.500000   0.000000 )  

     reciprocal axes: (cart. coord. in units 2 pi/alat)
               b(1) = ( -1.000000 -1.000000  1.000000 )  
               b(2) = (  1.000000  1.000000  1.000000 )  
               b(3) = ( -1.000000  1.000000 -1.000000 )  


     PseudoPot. # 1 for Si read from file:
     /fastscratch/tsievers/si_ph_benchmark_images//pseudos/Si.nc.UPF
     MD5 check sum: 9e2d726316af3d4752eea8ab0afbb951
     Pseudo is Norm-conserving + core correction, Zval =  4.0
     Generated using ONCVPSP code by D. R. Hamann
     Using radial grid of 1510 points,  6 beta functions with: 
                l(1) =   0
                l(2) =   0
                l(3) =   1
                l(4) =   1
                l(5) =   2
                l(6) =   2

     atomic species   valence    mass     pseudopotential
        Si             4.00    28.08550     Si( 1.00)

     48 Sym. Ops., with inversion, found



   Cartesian axes

     site n.     atom                  positions (alat units)
         1           Si  tau(   1) = (   0.0000000   0.0000000   0.0000000  )
         2           Si  tau(   2) = (  -0.2500000   0.2500000   0.2500000  )

     number of k points=   432

     Number of k-points >= 100: set verbosity='high' to print them.

     Dense  grid:    20875 G-vectors     FFT dimensions: (  40,  40,  40)

     Estimated max dynamical RAM per process >       6.43 MB

     Estimated total dynamical RAM >     540.47 MB

     The potential is recalculated from file :
     /fastscratch/tsievers/QE_TMP_DIR/_ph1/si_ph_bench_nimages_2_n_procs_168_0.save/charge-density

     Starting wfcs are    8 atomic wfcs

     Band Structure Calculation
     Davidson diagonalization with overlap

     ethr =  1.25E-10,  avg # of iterations = 12.8

     total cpu time spent up to now is       22.8 secs

     End of band structure calculation

     Number of k-points >= 100: set verbosity='high' to print the bands.

     highest occupied level (ev):     6.1106

     Writing config to output data dir /fastscratch/tsievers/QE_TMP_DIR/_ph1/si_ph_bench_nimages_2_n_procs_168_0.save/

     default                                                                    

     bravais-lattice index     =            2
     lattice parameter (alat)  =      10.1899  a.u.
     unit-cell volume          =     264.5151 (a.u.)^3
     number of atoms/cell      =            2
     number of atomic types    =            1
     kinetic-energy cut-off    =      70.0000  Ry
     charge density cut-off    =     280.0000  Ry
     convergence threshold     =      1.0E-15
     beta                      =       0.7000
     number of iterations used =            4
     Exchange-correlation= PW
                           (   1   4   0   0   0   0   0)


     celldm(1)=   10.18990  celldm(2)=    0.00000  celldm(3)=    0.00000
     celldm(4)=    0.00000  celldm(5)=    0.00000  celldm(6)=    0.00000

     crystal axes: (cart. coord. in units of alat)
               a(1) = ( -0.5000  0.0000  0.5000 )  
               a(2) = (  0.0000  0.5000  0.5000 )  
               a(3) = ( -0.5000  0.5000  0.0000 )  

     reciprocal axes: (cart. coord. in units 2 pi/alat)
               b(1) = ( -1.0000 -1.0000  1.0000 )  
               b(2) = (  1.0000  1.0000  1.0000 )  
               b(3) = ( -1.0000  1.0000 -1.0000 )  


     Atoms inside the unit cell: 

     Cartesian axes

     site n.  atom      mass           positions (alat units)
        1     Si  28.0855   tau(    1) = (    0.00000    0.00000    0.00000  )
        2     Si  28.0855   tau(    2) = (   -0.25000    0.25000    0.25000  )

     Computing dynamical matrix for 
                    q = (  -0.3333333  -1.0000000   0.0000000 )
 
      4 Sym.Ops. (no q -> -q+G )


     G cutoff =  736.4420  (  10439 G-vectors)     FFT grid: ( 40, 40, 40)
     number of k points=   432

     PseudoPot. # 1 for Si read from file:
     /fastscratch/tsievers/si_ph_benchmark_images//pseudos/Si.nc.UPF
     MD5 check sum: 9e2d726316af3d4752eea8ab0afbb951
     Pseudo is Norm-conserving + core correction, Zval =  4.0
     Generated using ONCVPSP code by D. R. Hamann
     Using radial grid of 1510 points,  6 beta functions with: 
                l(1) =   0
                l(2) =   0
                l(3) =   1
                l(4) =   1
                l(5) =   2
                l(6) =   2


     Atomic displacements:
     There are    3 irreducible representations

     Representation     1      2 modes -  To be done

     Representation     2      2 modes -  To be done

     Representation     3      2 modes -  To be done



     Alpha used in Ewald sum =   2.8000
     PHONON       :   8m27.77s CPU  12m59.96s WALL



     Representation #   1 modes #   1   2

     Self-consistent Calculation

      iter #   1 total cpu time :   781.4 secs   av.it.:   6.2
      thresh= 1.000E-02 alpha_mix =  0.700 |ddv_scf|^2 =  5.042E-07

      iter #   2 total cpu time :   785.7 secs   av.it.:  11.4
      thresh= 7.101E-05 alpha_mix =  0.700 |ddv_scf|^2 =  5.622E-07

      iter #   3 total cpu time :   790.1 secs   av.it.:  10.8
      thresh= 7.498E-05 alpha_mix =  0.700 |ddv_scf|^2 =  4.580E-09

      iter #   4 total cpu time :   794.2 secs   av.it.:  11.0
      thresh= 6.767E-06 alpha_mix =  0.700 |ddv_scf|^2 =  9.288E-11

      iter #   5 total cpu time :   799.1 secs   av.it.:  11.1
      thresh= 9.638E-07 alpha_mix =  0.700 |ddv_scf|^2 =  1.074E-12

      iter #   6 total cpu time :   804.8 secs   av.it.:  11.3
      thresh= 1.036E-07 alpha_mix =  0.700 |ddv_scf|^2 =  2.149E-14

      iter #   7 total cpu time :   817.9 secs   av.it.:  11.2
      thresh= 1.466E-08 alpha_mix =  0.700 |ddv_scf|^2 =  1.127E-15

      iter #   8 total cpu time :   820.6 secs   av.it.:  11.2
      thresh= 3.357E-09 alpha_mix =  0.700 |ddv_scf|^2 =  3.995E-17

     End of self-consistent calculation

     Convergence has been achieved 


     Representation #   2 modes #   3   4

     Self-consistent Calculation

      iter #   1 total cpu time :   823.9 secs   av.it.:   6.4
      thresh= 1.000E-02 alpha_mix =  0.700 |ddv_scf|^2 =  9.142E-07

      iter #   2 total cpu time :   830.0 secs   av.it.:  11.4
      thresh= 9.562E-05 alpha_mix =  0.700 |ddv_scf|^2 =  1.025E-06

      iter #   3 total cpu time :   833.8 secs   av.it.:  10.8
      thresh= 1.012E-04 alpha_mix =  0.700 |ddv_scf|^2 =  8.860E-09

      iter #   4 total cpu time :   837.8 secs   av.it.:  10.9
      thresh= 9.413E-06 alpha_mix =  0.700 |ddv_scf|^2 =  9.240E-11

      iter #   5 total cpu time :   841.2 secs   av.it.:  11.1
      thresh= 9.612E-07 alpha_mix =  0.700 |ddv_scf|^2 =  2.106E-12

      iter #   6 total cpu time :   845.8 secs   av.it.:  11.3
      thresh= 1.451E-07 alpha_mix =  0.700 |ddv_scf|^2 =  1.671E-14

      iter #   7 total cpu time :   849.8 secs   av.it.:  11.2
      thresh= 1.293E-08 alpha_mix =  0.700 |ddv_scf|^2 =  1.065E-15

      iter #   8 total cpu time :   852.8 secs   av.it.:  11.3
      thresh= 3.263E-09 alpha_mix =  0.700 |ddv_scf|^2 =  4.341E-17

     End of self-consistent calculation

     Convergence has been achieved 


     Representation #   3 modes #   5   6

     Self-consistent Calculation

      iter #   1 total cpu time :   857.9 secs   av.it.:   6.5
      thresh= 1.000E-02 alpha_mix =  0.700 |ddv_scf|^2 =  1.211E-06

      iter #   2 total cpu time :   862.0 secs   av.it.:  11.3
      thresh= 1.100E-04 alpha_mix =  0.700 |ddv_scf|^2 =  1.329E-06

      iter #   3 total cpu time :   865.4 secs   av.it.:  10.7
      thresh= 1.153E-04 alpha_mix =  0.700 |ddv_scf|^2 =  1.072E-08

      iter #   4 total cpu time :   870.9 secs   av.it.:  10.8
      thresh= 1.036E-05 alpha_mix =  0.700 |ddv_scf|^2 =  7.282E-11

      iter #   5 total cpu time :   874.8 secs   av.it.:  11.1
      thresh= 8.533E-07 alpha_mix =  0.700 |ddv_scf|^2 =  6.922E-13

      iter #   6 total cpu time :   878.4 secs   av.it.:  11.2
      thresh= 8.320E-08 alpha_mix =  0.700 |ddv_scf|^2 =  1.216E-14

      iter #   7 total cpu time :   881.2 secs   av.it.:  11.1
      thresh= 1.103E-08 alpha_mix =  0.700 |ddv_scf|^2 =  7.304E-16

     End of self-consistent calculation

     Convergence has been achieved 
 
     Number of q in the star =   12
     List of q in the star:
          1  -0.333333333  -1.000000000   0.000000000
          2   0.333333333  -1.000000000   0.000000000
          3   0.000000000  -1.000000000   0.333333333
          4   0.000000000  -1.000000000  -0.333333333
          5  -1.000000000   0.000000000  -0.333333333
          6   1.000000000   0.000000000   0.333333333
          7  -1.000000000  -0.333333333   0.000000000
          8   0.000000000  -0.333333333  -1.000000000
          9   0.000000000   0.333333333   1.000000000
         10   1.000000000   0.333333333   0.000000000
         11  -0.333333333   0.000000000   1.000000000
         12   0.333333333   0.000000000   1.000000000

     Diagonalizing the dynamical matrix

     q = (   -0.333333333  -1.000000000   0.000000000 ) 

 **************************************************************************
     freq (    1) =       5.494573 [THz] =     183.279228 [cm-1]
     freq (    2) =       5.494573 [THz] =     183.279228 [cm-1]
     freq (    3) =      10.966349 [THz] =     365.798036 [cm-1]
     freq (    4) =      10.966349 [THz] =     365.798036 [cm-1]
     freq (    5) =      14.002143 [THz] =     467.061209 [cm-1]
     freq (    6) =      14.002143 [THz] =     467.061209 [cm-1]
 **************************************************************************
 
     init_run     :      0.68s CPU      0.77s WALL (       8 calls)
     electrons    :     11.11s CPU     12.72s WALL (       8 calls)

     Called by init_run:
     wfcinit      :      0.00s CPU      0.08s WALL (       8 calls)
     potinit      :      0.04s CPU      0.04s WALL (       8 calls)
     hinit0       :      0.20s CPU      0.20s WALL (       8 calls)

     Called by electrons:
     c_bands      :     11.00s CPU     12.61s WALL (       8 calls)
     v_of_rho     :      0.03s CPU      0.03s WALL (       9 calls)

     Called by c_bands:
     init_us_2    :      1.34s CPU      1.41s WALL (    3112 calls)
     init_us_2:cp :      1.34s CPU      1.40s WALL (    3112 calls)
     cegterg      :      4.52s CPU      4.60s WALL (     114 calls)

     Called by *egterg:
     cdiaghg      :      0.11s CPU      0.11s WALL (    1641 calls)
     h_psi        :     81.43s CPU     82.64s WALL (   32396 calls)
     g_psi        :      0.05s CPU      0.05s WALL (    1527 calls)

     Called by h_psi:
     h_psi:calbec :      5.28s CPU      5.36s WALL (   32396 calls)
     vloc_psi     :     70.85s CPU     71.91s WALL (   32396 calls)
     add_vuspsi   :      4.82s CPU      4.90s WALL (   32396 calls)

     General routines
     calbec       :      9.89s CPU     10.09s WALL (   64843 calls)
     fft          :      0.70s CPU      0.72s WALL (    1674 calls)
     ffts         :      0.65s CPU      0.66s WALL (     534 calls)
     fftw         :     72.94s CPU     74.24s WALL (  272766 calls)
     davcio       :      0.71s CPU      5.57s WALL (   15174 calls)
 
     Parallel routines
 
     PHONON       :   9m32.01s CPU  14m45.53s WALL

     INITIALIZATION: 
     phq_setup    :      0.06s CPU      0.17s WALL (       8 calls)
     phq_init     :      3.28s CPU      6.93s WALL (       8 calls)
 
     phq_init     :      3.28s CPU      6.93s WALL (       8 calls)
     set_drhoc    :      2.09s CPU      2.09s WALL (      22 calls)
     init_vloc    :      0.02s CPU      0.02s WALL (       9 calls)
     init_us_1    :      0.07s CPU      0.08s WALL (       9 calls)
     init_us_2    :      1.34s CPU      1.41s WALL (    3112 calls)
 
     DYNAMICAL MATRIX:
     dynmat0      :      1.72s CPU      5.37s WALL (       7 calls)
     phqscf       :    552.11s CPU    845.99s WALL (       8 calls)
     dynmatrix    :     52.37s CPU     89.91s WALL (       7 calls)
 
     phqscf       :    552.11s CPU    845.99s WALL (       8 calls)
     solve_linter :    551.53s CPU    814.64s WALL (      36 calls)
     drhodv       :      0.52s CPU      0.57s WALL (      36 calls)
 
     dynmat0      :      1.72s CPU      5.37s WALL (       7 calls)
     dynmat_us    :      0.30s CPU      0.30s WALL (       7 calls)
     d2ionq       :      0.02s CPU      0.02s WALL (       7 calls)
     dynmatcc     :      1.37s CPU      1.37s WALL (       7 calls)
 
     dynmat_us    :      0.30s CPU      0.30s WALL (       7 calls)
 
     phqscf       :    552.11s CPU    845.99s WALL (       8 calls)
     solve_linter :    551.53s CPU    814.64s WALL (      36 calls)
 
     solve_linter :    551.53s CPU    814.64s WALL (      36 calls)
     dvqpsi_us    :      1.69s CPU      1.74s WALL (     318 calls)
     sth_kernel   :    116.62s CPU    120.33s WALL (     276 calls)
     apply_dpot_b :      5.65s CPU      5.84s WALL (    2206 calls)
     ortho        :      0.20s CPU      0.21s WALL (    2524 calls)
     cgsolve      :     86.46s CPU     87.75s WALL (    2524 calls)
     incdrhoscf   :      6.68s CPU      6.91s WALL (    2524 calls)
     dv_of_drho   :      0.54s CPU      0.55s WALL (     329 calls)
     mix_pot      :      1.18s CPU    117.33s WALL (     276 calls)
     psymdvscf    :      3.01s CPU      3.10s WALL (     276 calls)
 
     dvqpsi_us    :      1.69s CPU      1.74s WALL (     318 calls)
     dvqpsi_us_on :      0.28s CPU      0.28s WALL (     318 calls)
 
     cgsolve      :     86.46s CPU     87.75s WALL (    2524 calls)
     ch_psi       :     84.37s CPU     85.60s WALL (   30641 calls)
 
     ch_psi       :     84.37s CPU     85.60s WALL (   30641 calls)
     h_psi        :     81.43s CPU     82.64s WALL (   32396 calls)
     last         :      6.99s CPU      7.10s WALL (   30641 calls)
 
     h_psi        :     81.43s CPU     82.64s WALL (   32396 calls)
     add_vuspsi   :      4.82s CPU      4.90s WALL (   32396 calls)
 
     incdrhoscf   :      6.68s CPU      6.91s WALL (    2524 calls)
 
 
      General routines
     calbec       :      9.89s CPU     10.09s WALL (   64843 calls)
     fft          :      0.70s CPU      0.72s WALL (    1674 calls)
     ffts         :      0.65s CPU      0.66s WALL (     534 calls)
     fftw         :     72.94s CPU     74.24s WALL (  272766 calls)
     davcio       :      0.71s CPU      5.57s WALL (   15174 calls)
     write_rec    :      0.34s CPU    168.32s WALL (     312 calls)
 
     PHONON       :   9m32.01s CPU  14m45.53s WALL

