Module for gcc 10.2:
(GNU C/C++/FORTRAN compilers v10.2.0) - loaded.
Module for OpenMPI 4.1.0-gcc10.2-infiniband loaded.

     Program PWSCF v.7.0 starts on 12Feb2022 at 14:16: 3 

     This program is part of the open-source Quantum ESPRESSO suite
     for quantum simulation of materials; please cite
         "P. Giannozzi et al., J. Phys.:Condens. Matter 21 395502 (2009);
         "P. Giannozzi et al., J. Phys.:Condens. Matter 29 465901 (2017);
         "P. Giannozzi et al., J. Chem. Phys. 152 154105 (2020);
          URL http://www.quantum-espresso.org", 
     in publications or presentations arising from this work. More details at
     http://www.quantum-espresso.org/quote

     Parallel version (MPI), running on     1 processors

     MPI processes distributed on     1 nodes
     49803 MiB available memory on the printing compute node when the environment starts

     Reading input from in_files/ec_17.scf

     Current dimensions of program PWSCF are:
     Max number of different atomic species (ntypx) = 10
     Max number of k-points (npk) =  40000
     Max angular momentum in pseudopotentials (lmaxx) =  4

     Subspace diagonalization in iterative solution of the eigenvalue problem:
     a serial algorithm will be used


     G-vector sticks info
     --------------------
     sticks:   dense  smooth     PW     G-vecs:    dense   smooth      PW
     Sum         253     253     85                 2565     2565     531

     Using Slab Decomposition



     bravais-lattice index     =            2
     lattice parameter (alat)  =      10.2000  a.u.
     unit-cell volume          =     265.3020 (a.u.)^3
     number of atoms/cell      =            2
     number of atomic types    =            1
     number of electrons       =         8.00
     number of Kohn-Sham states=            4
     kinetic-energy cutoff     =      17.0000  Ry
     charge density cutoff     =      68.0000  Ry
     scf convergence threshold =      1.0E-12
     mixing beta               =       0.7000
     number of iterations used =            8  plain     mixing
     Exchange-correlation= PBE
                           (   1   4   3   4   0   0   0)

     celldm(1)=  10.200000  celldm(2)=   0.000000  celldm(3)=   0.000000
     celldm(4)=   0.000000  celldm(5)=   0.000000  celldm(6)=   0.000000

     crystal axes: (cart. coord. in units of alat)
               a(1) = (  -0.500000   0.000000   0.500000 )  
               a(2) = (   0.000000   0.500000   0.500000 )  
               a(3) = (  -0.500000   0.500000   0.000000 )  

     reciprocal axes: (cart. coord. in units 2 pi/alat)
               b(1) = ( -1.000000 -1.000000  1.000000 )  
               b(2) = (  1.000000  1.000000  1.000000 )  
               b(3) = ( -1.000000  1.000000 -1.000000 )  


     PseudoPot. # 1 for Si read from file:
     ./pseudos/Si_pbe_v0.4.1.nc.sr.upf
     MD5 check sum: 02fab3f35e82123ef5bf1cb05d5b1a5e
     Pseudo is Norm-conserving + core correction, Zval =  4.0
     Generated using ONCVPSP code by D. R. Hamann
     Using radial grid of 1510 points,  6 beta functions with: 
                l(1) =   0
                l(2) =   0
                l(3) =   1
                l(4) =   1
                l(5) =   2
                l(6) =   2

     atomic species   valence    mass     pseudopotential
        Si             4.00    28.08600     Si( 1.00)

     48 Sym. Ops., with inversion, found (24 have fractional translation)



   Cartesian axes

     site n.     atom                  positions (alat units)
         1           Si  tau(   1) = (   0.0000000   0.0000000   0.0000000  )
         2           Si  tau(   2) = (   0.2500000   0.2500000   0.2500000  )

     number of k points=    29
                       cart. coord. in units 2pi/alat
        k(    1) = (   0.0000000   0.0000000   0.0000000), wk =   0.0039062
        k(    2) = (  -0.1250000   0.1250000  -0.1250000), wk =   0.0312500
        k(    3) = (  -0.2500000   0.2500000  -0.2500000), wk =   0.0312500
        k(    4) = (  -0.3750000   0.3750000  -0.3750000), wk =   0.0312500
        k(    5) = (   0.5000000  -0.5000000   0.5000000), wk =   0.0156250
        k(    6) = (   0.0000000   0.2500000   0.0000000), wk =   0.0234375
        k(    7) = (  -0.1250000   0.3750000  -0.1250000), wk =   0.0937500
        k(    8) = (  -0.2500000   0.5000000  -0.2500000), wk =   0.0937500
        k(    9) = (   0.6250000  -0.3750000   0.6250000), wk =   0.0937500
        k(   10) = (   0.5000000  -0.2500000   0.5000000), wk =   0.0937500
        k(   11) = (   0.3750000  -0.1250000   0.3750000), wk =   0.0937500
        k(   12) = (   0.2500000   0.0000000   0.2500000), wk =   0.0468750
        k(   13) = (   0.0000000   0.5000000   0.0000000), wk =   0.0234375
        k(   14) = (  -0.1250000   0.6250000  -0.1250000), wk =   0.0937500
        k(   15) = (   0.7500000  -0.2500000   0.7500000), wk =   0.0937500
        k(   16) = (   0.6250000  -0.1250000   0.6250000), wk =   0.0937500
        k(   17) = (   0.5000000   0.0000000   0.5000000), wk =   0.0468750
        k(   18) = (   0.0000000   0.7500000   0.0000000), wk =   0.0234375
        k(   19) = (   0.8750000  -0.1250000   0.8750000), wk =   0.0937500
        k(   20) = (   0.7500000   0.0000000   0.7500000), wk =   0.0468750
        k(   21) = (   0.0000000  -1.0000000   0.0000000), wk =   0.0117188
        k(   22) = (  -0.2500000   0.5000000   0.0000000), wk =   0.0937500
        k(   23) = (   0.6250000  -0.3750000   0.8750000), wk =   0.1875000
        k(   24) = (   0.5000000  -0.2500000   0.7500000), wk =   0.0937500
        k(   25) = (   0.7500000  -0.2500000   1.0000000), wk =   0.0937500
        k(   26) = (   0.6250000  -0.1250000   0.8750000), wk =   0.1875000
        k(   27) = (   0.5000000   0.0000000   0.7500000), wk =   0.0937500
        k(   28) = (  -0.2500000  -1.0000000   0.0000000), wk =   0.0468750
        k(   29) = (  -0.5000000  -1.0000000   0.0000000), wk =   0.0234375

     Dense  grid:     2565 G-vectors     FFT dimensions: (  20,  20,  20)

     Estimated max dynamical RAM per process >       3.11 MB

     Initial potential from superposition of free atoms

     starting charge       7.9988, renormalised to       8.0000
     Starting wfcs are    8 randomized atomic wfcs

     total cpu time spent up to now is        0.3 secs

     Self-consistent Calculation

     iteration #  1     ecut=    17.00 Ry     beta= 0.70
     Davidson diagonalization with overlap
     ethr =  1.00E-02,  avg # of iterations =  2.0

     Threshold (ethr) on eigenvalues was too large:
     Diagonalizing with lowered threshold

     Davidson diagonalization with overlap
     ethr =  5.92E-04,  avg # of iterations =  2.0

     total cpu time spent up to now is        0.5 secs

     total energy              =     -16.91615466 Ry
     estimated scf accuracy    <       0.05527591 Ry

     iteration #  2     ecut=    17.00 Ry     beta= 0.70
     Davidson diagonalization with overlap
     ethr =  6.91E-04,  avg # of iterations =  1.0

     total cpu time spent up to now is        0.5 secs

     total energy              =     -16.91774847 Ry
     estimated scf accuracy    <       0.00288445 Ry

     iteration #  3     ecut=    17.00 Ry     beta= 0.70
     Davidson diagonalization with overlap
     ethr =  3.61E-05,  avg # of iterations =  2.1

     total cpu time spent up to now is        0.6 secs

     total energy              =     -16.91832733 Ry
     estimated scf accuracy    <       0.00006586 Ry

     iteration #  4     ecut=    17.00 Ry     beta= 0.70
     Davidson diagonalization with overlap
     ethr =  8.23E-07,  avg # of iterations =  4.5

     total cpu time spent up to now is        0.7 secs

     total energy              =     -16.91839540 Ry
     estimated scf accuracy    <       0.00000025 Ry

     iteration #  5     ecut=    17.00 Ry     beta= 0.70
     Davidson diagonalization with overlap
     ethr =  3.10E-09,  avg # of iterations =  6.7

     total cpu time spent up to now is        0.8 secs

     total energy              =     -16.91839691 Ry
     estimated scf accuracy    <       0.00000004 Ry

     iteration #  6     ecut=    17.00 Ry     beta= 0.70
     Davidson diagonalization with overlap
     ethr =  5.37E-10,  avg # of iterations =  2.2

     total cpu time spent up to now is        0.9 secs

     total energy              =     -16.91839691 Ry
     estimated scf accuracy    <       0.00000001 Ry

     iteration #  7     ecut=    17.00 Ry     beta= 0.70
     Davidson diagonalization with overlap
     ethr =  1.81E-10,  avg # of iterations =  1.4

     total cpu time spent up to now is        1.0 secs

     total energy              =     -16.91839691 Ry
     estimated scf accuracy    <          5.7E-12 Ry

     iteration #  8     ecut=    17.00 Ry     beta= 0.70
     Davidson diagonalization with overlap
     ethr =  1.00E-13,  avg # of iterations =  8.4

     total cpu time spent up to now is        1.1 secs

     total energy              =     -16.91839692 Ry
     estimated scf accuracy    <          1.2E-11 Ry

     iteration #  9     ecut=    17.00 Ry     beta= 0.70
     Davidson diagonalization with overlap
     ethr =  1.00E-13,  avg # of iterations =  2.3

     total cpu time spent up to now is        1.2 secs

     total energy              =     -16.91839692 Ry
     estimated scf accuracy    <          5.0E-12 Ry

     iteration # 10     ecut=    17.00 Ry     beta= 0.70
     Davidson diagonalization with overlap
     ethr =  1.00E-13,  avg # of iterations =  2.0

     total cpu time spent up to now is        1.2 secs

     total energy              =     -16.91839692 Ry
     estimated scf accuracy    <          2.1E-12 Ry

     iteration # 11     ecut=    17.00 Ry     beta= 0.70
     Davidson diagonalization with overlap
     ethr =  1.00E-13,  avg # of iterations =  1.0

     total cpu time spent up to now is        1.3 secs

     End of self-consistent calculation

          k = 0.0000 0.0000 0.0000 (   331 PWs)   bands (ev):

    -5.6648   6.4365   6.4365   6.4365

          k =-0.1250 0.1250-0.1250 (   319 PWs)   bands (ev):

    -5.4567   4.8247   6.1391   6.1391

          k =-0.2500 0.2500-0.2500 (   311 PWs)   bands (ev):

    -4.8502   2.4663   5.6573   5.6573

          k =-0.3750 0.3750-0.3750 (   314 PWs)   bands (ev):

    -3.9379   0.4130   5.3240   5.3240

          k = 0.5000-0.5000 0.5000 (   332 PWs)   bands (ev):

    -3.2865  -0.6349   5.2095   5.2095

          k = 0.0000 0.2500 0.0000 (   315 PWs)   bands (ev):

    -5.3866   5.1167   5.6063   5.6063

          k =-0.1250 0.3750-0.1250 (   312 PWs)   bands (ev):

    -4.9087   3.1902   5.0831   5.1736

          k =-0.2500 0.5000-0.2500 (   317 PWs)   bands (ev):

    -4.0790   1.0920   4.5735   4.8104

          k = 0.6250-0.3750 0.6250 (   314 PWs)   bands (ev):

    -3.1962  -0.4021   4.1191   4.8366

          k = 0.5000-0.2500 0.5000 (   314 PWs)   bands (ev):

    -3.4472  -0.0228   3.9304   5.1408

          k = 0.3750-0.1250 0.3750 (   313 PWs)   bands (ev):

    -4.3911   1.7641   4.0785   5.6445

          k = 0.2500 0.0000 0.2500 (   317 PWs)   bands (ev):

    -5.1150   3.7387   4.7650   6.1378

          k = 0.0000 0.5000 0.0000 (   311 PWs)   bands (ev):

    -4.5637   2.9185   4.4993   4.4993

          k =-0.1250 0.6250-0.1250 (   316 PWs)   bands (ev):

    -3.8418   1.4672   3.7063   4.1752

          k = 0.7500-0.2500 0.7500 (   315 PWs)   bands (ev):

    -2.8960  -0.0070   2.8300   4.1792

          k = 0.6250-0.1250 0.6250 (   313 PWs)   bands (ev):

    -2.6845  -0.2730   2.3612   4.5048

          k = 0.5000 0.0000 0.5000 (   315 PWs)   bands (ev):

    -3.5827   0.9117   2.6000   5.0764

          k = 0.0000 0.7500 0.0000 (   322 PWs)   bands (ev):

    -3.2311   0.6548   3.7689   3.7689

          k = 0.8750-0.1250 0.8750 (   318 PWs)   bands (ev):

    -2.3163  -0.4472   2.9204   3.6918

          k = 0.7500 0.0000 0.7500 (   308 PWs)   bands (ev):

    -1.8617  -0.8511   2.0338   3.9550

          k = 0.0000-1.0000 0.0000 (   302 PWs)   bands (ev):

    -1.4483  -1.4483   3.5194   3.5194

          k =-0.2500 0.5000 0.0000 (   311 PWs)   bands (ev):

    -4.3108   2.1227   3.6601   4.9767

          k = 0.6250-0.3750 0.8750 (   317 PWs)   bands (ev):

    -3.4060   0.5386   3.0492   4.4604

          k = 0.5000-0.2500 0.7500 (   308 PWs)   bands (ev):

    -2.7349  -0.4291   2.9237   4.2239

          k = 0.7500-0.2500 1.0000 (   321 PWs)   bands (ev):

    -3.0267   0.4319   2.9977   3.6095

          k = 0.6250-0.1250 0.8750 (   313 PWs)   bands (ev):

    -2.1305  -0.5524   2.2838   3.4048

          k = 0.5000 0.0000 0.7500 (   311 PWs)   bands (ev):

    -2.4880  -0.1836   2.1129   3.7898

          k =-0.2500-1.0000 0.0000 (   316 PWs)   bands (ev):

    -1.3681  -1.3681   2.9397   2.9397

          k =-0.5000-1.0000 0.0000 (   308 PWs)   bands (ev):

    -1.2752  -1.2752   2.4917   2.4917

     highest occupied level (ev):     6.4365

!    total energy              =     -16.91839692 Ry
     estimated scf accuracy    <          2.1E-15 Ry

     The total energy is the sum of the following terms:
     one-electron contribution =       5.10661933 Ry
     hartree contribution      =       1.07827423 Ry
     xc contribution           =      -6.20353180 Ry
     ewald contribution        =     -16.89975868 Ry

     convergence has been achieved in  11 iterations

     Writing all to output data dir /fastscratch/tsievers/QE_TMP_DIR/silicon_bench_singlecore_ecut_17.save/

     init_run     :      0.30s CPU      0.30s WALL (       1 calls)
     electrons    :      0.93s CPU      0.98s WALL (       1 calls)

     Called by init_run:
     wfcinit      :      0.14s CPU      0.14s WALL (       1 calls)
     potinit      :      0.01s CPU      0.01s WALL (       1 calls)
     hinit0       :      0.14s CPU      0.15s WALL (       1 calls)

     Called by electrons:
     c_bands      :      0.77s CPU      0.81s WALL (      12 calls)
     sum_band     :      0.11s CPU      0.11s WALL (      12 calls)
     v_of_rho     :      0.05s CPU      0.05s WALL (      12 calls)
     mix_rho      :      0.00s CPU      0.00s WALL (      12 calls)

     Called by c_bands:
     init_us_2    :      0.09s CPU      0.09s WALL (     725 calls)
     init_us_2:cp :      0.08s CPU      0.09s WALL (     725 calls)
     cegterg      :      0.59s CPU      0.62s WALL (     348 calls)

     Called by *egterg:
     cdiaghg      :      0.03s CPU      0.03s WALL (    1351 calls)
     h_psi        :      0.60s CPU      0.62s WALL (    1409 calls)
     g_psi        :      0.01s CPU      0.01s WALL (    1032 calls)

     Called by h_psi:
     h_psi:calbec :      0.08s CPU      0.09s WALL (    1409 calls)
     vloc_psi     :      0.42s CPU      0.43s WALL (    1409 calls)
     add_vuspsi   :      0.09s CPU      0.09s WALL (    1409 calls)

     General routines
     calbec       :      0.08s CPU      0.08s WALL (    1409 calls)
     fft          :      0.11s CPU      0.11s WALL (     121 calls)
     ffts         :      0.00s CPU      0.00s WALL (      12 calls)
     fftw         :      0.38s CPU      0.39s WALL (   11108 calls)

     Parallel routines

     PWSCF        :      1.26s CPU      1.41s WALL


   This run was terminated on:  14:16: 4  12Feb2022            

=------------------------------------------------------------------------------=
   JOB DONE.
=------------------------------------------------------------------------------=
