Module for intel-oneAPI 2021.4.0 loaded.
Module for gcc 10.2:
(GNU C/C++/FORTRAN compilers v10.2.0) - loaded.
Module for OpenMPI 4.1.0-gcc10.2-infiniband loaded.

     Program PWSCF v.7.0 starts on 15Mar2022 at 11: 7:32 

     This program is part of the open-source Quantum ESPRESSO suite
     for quantum simulation of materials; please cite
         "P. Giannozzi et al., J. Phys.:Condens. Matter 21 395502 (2009);
         "P. Giannozzi et al., J. Phys.:Condens. Matter 29 465901 (2017);
         "P. Giannozzi et al., J. Chem. Phys. 152 154105 (2020);
          URL http://www.quantum-espresso.org", 
     in publications or presentations arising from this work. More details at
     http://www.quantum-espresso.org/quote

     Parallel version (MPI), running on     8 processors

     MPI processes distributed on     1 nodes
     K-points division:     npool     =       8
     37886 MiB available memory on the printing compute node when the environment starts

     Reading input from in_files/silicon_bench_nk_8_n_procs_8.scf

     Current dimensions of program PWSCF are:
     Max number of different atomic species (ntypx) = 10
     Max number of k-points (npk) =  40000
     Max angular momentum in pseudopotentials (lmaxx) =  4

     Subspace diagonalization in iterative solution of the eigenvalue problem:
     a serial algorithm will be used


     G-vector sticks info
     --------------------
     sticks:   dense  smooth     PW     G-vecs:    dense   smooth      PW
     Sum        1003    1003    301                20875    20875    3479

     Using Slab Decomposition



     bravais-lattice index     =            2
     lattice parameter (alat)  =      10.2000  a.u.
     unit-cell volume          =     265.3020 (a.u.)^3
     number of atoms/cell      =            2
     number of atomic types    =            1
     number of electrons       =         8.00
     number of Kohn-Sham states=            4
     kinetic-energy cutoff     =      70.0000  Ry
     charge density cutoff     =     280.0000  Ry
     scf convergence threshold =      1.0E-12
     mixing beta               =       0.7000
     number of iterations used =            8  plain     mixing
     Exchange-correlation= PBE
                           (   1   4   3   4   0   0   0)

     celldm(1)=  10.200000  celldm(2)=   0.000000  celldm(3)=   0.000000
     celldm(4)=   0.000000  celldm(5)=   0.000000  celldm(6)=   0.000000

     crystal axes: (cart. coord. in units of alat)
               a(1) = (  -0.500000   0.000000   0.500000 )  
               a(2) = (   0.000000   0.500000   0.500000 )  
               a(3) = (  -0.500000   0.500000   0.000000 )  

     reciprocal axes: (cart. coord. in units 2 pi/alat)
               b(1) = ( -1.000000 -1.000000  1.000000 )  
               b(2) = (  1.000000  1.000000  1.000000 )  
               b(3) = ( -1.000000  1.000000 -1.000000 )  


     PseudoPot. # 1 for Si read from file:
     ./pseudos/Si_pbe_v0.4.1.nc.sr.upf
     MD5 check sum: 02fab3f35e82123ef5bf1cb05d5b1a5e
     Pseudo is Norm-conserving + core correction, Zval =  4.0
     Generated using ONCVPSP code by D. R. Hamann
     Using radial grid of 1510 points,  6 beta functions with: 
                l(1) =   0
                l(2) =   0
                l(3) =   1
                l(4) =   1
                l(5) =   2
                l(6) =   2

     atomic species   valence    mass     pseudopotential
        Si             4.00    28.08600     Si( 1.00)

     48 Sym. Ops., with inversion, found (24 have fractional translation)



   Cartesian axes

     site n.     atom                  positions (alat units)
         1           Si  tau(   1) = (   0.0000000   0.0000000   0.0000000  )
         2           Si  tau(   2) = (   0.2500000   0.2500000   0.2500000  )

     number of k points=  1661

     Number of k-points >= 100: set verbosity='high' to print them.

     Dense  grid:    20875 G-vectors     FFT dimensions: (  40,  40,  40)

     Estimated max dynamical RAM per process >      49.98 MB

     Estimated total dynamical RAM >     364.15 MB

     Initial potential from superposition of free atoms

     starting charge       7.9988, renormalised to       8.0000
     Starting wfcs are    8 randomized atomic wfcs

     total cpu time spent up to now is        4.4 secs

     Self-consistent Calculation

     iteration #  1     ecut=    70.00 Ry     beta= 0.70
     Davidson diagonalization with overlap
     ethr =  1.00E-02,  avg # of iterations =  2.0

     Threshold (ethr) on eigenvalues was too large:
     Diagonalizing with lowered threshold

     Davidson diagonalization with overlap
     ethr =  5.86E-04,  avg # of iterations =  2.0

     total cpu time spent up to now is       19.5 secs

     total energy              =     -16.92149510 Ry
     estimated scf accuracy    <       0.05529753 Ry

     iteration #  2     ecut=    70.00 Ry     beta= 0.70
     Davidson diagonalization with overlap
     ethr =  6.91E-04,  avg # of iterations =  1.0

     total cpu time spent up to now is       25.3 secs

     total energy              =     -16.92319912 Ry
     estimated scf accuracy    <       0.00290963 Ry

     iteration #  3     ecut=    70.00 Ry     beta= 0.70
     Davidson diagonalization with overlap
     ethr =  3.64E-05,  avg # of iterations =  2.3

     total cpu time spent up to now is       33.4 secs

     total energy              =     -16.92386757 Ry
     estimated scf accuracy    <       0.00006629 Ry

     iteration #  4     ecut=    70.00 Ry     beta= 0.70
     Davidson diagonalization with overlap
     ethr =  8.29E-07,  avg # of iterations =  5.1

     total cpu time spent up to now is       45.9 secs

     total energy              =     -16.92395272 Ry
     estimated scf accuracy    <       0.00000026 Ry

     iteration #  5     ecut=    70.00 Ry     beta= 0.70
     Davidson diagonalization with overlap
     ethr =  3.20E-09,  avg # of iterations =  6.5

     total cpu time spent up to now is       61.9 secs

     total energy              =     -16.92395445 Ry
     estimated scf accuracy    <          7.9E-09 Ry

     iteration #  6     ecut=    70.00 Ry     beta= 0.70
     Davidson diagonalization with overlap
     ethr =  9.82E-11,  avg # of iterations =  3.7

     total cpu time spent up to now is       72.7 secs

     total energy              =     -16.92395445 Ry
     estimated scf accuracy    <          6.4E-10 Ry

     iteration #  7     ecut=    70.00 Ry     beta= 0.70
     Davidson diagonalization with overlap
     ethr =  8.05E-12,  avg # of iterations =  3.4

     total cpu time spent up to now is       82.8 secs

     total energy              =     -16.92395445 Ry
     estimated scf accuracy    <          1.2E-10 Ry

     iteration #  8     ecut=    70.00 Ry     beta= 0.70
     Davidson diagonalization with overlap
     ethr =  1.51E-12,  avg # of iterations =  2.3

     total cpu time spent up to now is       90.8 secs

     End of self-consistent calculation

     Number of k-points >= 100: set verbosity='high' to print the bands.

     highest occupied level (ev):     6.4228

!    total energy              =     -16.92395445 Ry
     estimated scf accuracy    <          9.8E-14 Ry

     The total energy is the sum of the following terms:
     one-electron contribution =       5.10086349 Ry
     hartree contribution      =       1.07923925 Ry
     xc contribution           =      -6.20429862 Ry
     ewald contribution        =     -16.89975857 Ry

     convergence has been achieved in   8 iterations

     Writing all to output data dir /fastscratch/tsievers/QE_TMP_DIR/silicon_bench_nk_8_n_procs_8.save/

     init_run     :      4.26s CPU      4.37s WALL (       1 calls)
     electrons    :     85.85s CPU     88.21s WALL (       1 calls)

     Called by init_run:
     wfcinit      :      4.04s CPU      4.07s WALL (       1 calls)
     potinit      :      0.05s CPU      0.11s WALL (       1 calls)
     hinit0       :      0.11s CPU      0.12s WALL (       1 calls)

     Called by electrons:
     c_bands      :     76.04s CPU     76.42s WALL (       9 calls)
     sum_band     :      9.39s CPU      9.44s WALL (       9 calls)
     v_of_rho     :      0.40s CPU      0.42s WALL (       9 calls)
     mix_rho      :      0.03s CPU      0.04s WALL (       9 calls)

     Called by c_bands:
     init_us_2    :      4.15s CPU      4.19s WALL (    3952 calls)
     init_us_2:cp :      4.14s CPU      4.18s WALL (    3952 calls)
     cegterg      :     58.25s CPU     58.48s WALL (    1872 calls)

     Called by *egterg:
     cdiaghg      :      0.39s CPU      0.39s WALL (    8121 calls)
     h_psi        :     58.22s CPU     58.47s WALL (    8537 calls)
     g_psi        :      0.41s CPU      0.42s WALL (    6457 calls)

     Called by h_psi:
     h_psi:calbec :      2.76s CPU      2.77s WALL (    8537 calls)
     vloc_psi     :     52.85s CPU     53.08s WALL (    8537 calls)
     add_vuspsi   :      2.35s CPU      2.36s WALL (    8537 calls)

     General routines
     calbec       :      2.73s CPU      2.75s WALL (    8537 calls)
     fft          :      0.08s CPU      0.08s WALL (      91 calls)
     ffts         :      0.01s CPU      0.01s WALL (       9 calls)
     fftw         :     53.85s CPU     54.09s WALL (   63148 calls)

     Parallel routines

     PWSCF        :   1m30.37s CPU   1m53.73s WALL


   This run was terminated on:  11: 9:26  15Mar2022            

=------------------------------------------------------------------------------=
   JOB DONE.
=------------------------------------------------------------------------------=
real 114.99
user 741.83
sys 4.87
