Module for intel-oneAPI 2021.4 loaded.
 
:: initializing oneAPI environment ...
   3065500: BASH_VERSION = 4.4.20(1)-release
:: advisor -- latest
:: ccl -- latest
:: clck -- latest
:: compiler -- latest
:: dal -- latest
:: debugger -- latest
:: dev-utilities -- latest
:: dnnl -- latest
:: dpcpp-ct -- latest
:: dpl -- latest
:: inspector -- latest
:: intelpython -- latest
:: ipp -- latest
:: ippcp -- latest
:: ipp -- latest
:: itac -- latest
:: LPOT -- latest
:: mkl -- latest
:: modelzoo -- latest
:: mpi -- latest
:: pytorch -- latest
:: tbb -- latest
:: tensorflow -- latest
:: vpl -- latest
:: vtune -- latest
:: oneAPI environment initialized ::
 

     Program PWSCF v.7.0 starts on 27Jun2022 at  2: 4: 9 

     This program is part of the open-source Quantum ESPRESSO suite
     for quantum simulation of materials; please cite
         "P. Giannozzi et al., J. Phys.:Condens. Matter 21 395502 (2009);
         "P. Giannozzi et al., J. Phys.:Condens. Matter 29 465901 (2017);
         "P. Giannozzi et al., J. Chem. Phys. 152 154105 (2020);
          URL http://www.quantum-espresso.org", 
     in publications or presentations arising from this work. More details at
     http://www.quantum-espresso.org/quote

     Parallel version (MPI), running on    24 processors

     MPI processes distributed on     2 nodes
     R & G space division:  proc/nbgrp/npool/nimage =      24
     3102 MiB available memory on the printing compute node when the environment starts
 
     Reading input from in_files/silicon_ph_bench_nd_1_n_procs_24_2.scf

     Current dimensions of program PWSCF are:
     Max number of different atomic species (ntypx) = 10
     Max number of k-points (npk) =  40000
     Max angular momentum in pseudopotentials (lmaxx) =  4

     Subspace diagonalization in iterative solution of the eigenvalue problem:
     a serial algorithm will be used

 
     Parallelization info
     --------------------
     sticks:   dense  smooth     PW     G-vecs:    dense   smooth      PW
     Min          41      41     12                  868      868     143
     Max          42      42     13                  871      871     146
     Sum        1003    1003    301                20875    20875    3479
 
     Using Slab Decomposition
 


     bravais-lattice index     =            2
     lattice parameter (alat)  =      10.1899  a.u.
     unit-cell volume          =     264.5151 (a.u.)^3
     number of atoms/cell      =            2
     number of atomic types    =            1
     number of electrons       =         8.00
     number of Kohn-Sham states=            4
     kinetic-energy cutoff     =      70.0000  Ry
     charge density cutoff     =     280.0000  Ry
     scf convergence threshold =      1.0E-10
     mixing beta               =       0.7000
     number of iterations used =            8  plain     mixing
     Exchange-correlation= SLA  PW   NOGX NOGC
                           (   1   4   0   0   0   0   0)

     celldm(1)=  10.189905  celldm(2)=   0.000000  celldm(3)=   0.000000
     celldm(4)=   0.000000  celldm(5)=   0.000000  celldm(6)=   0.000000

     crystal axes: (cart. coord. in units of alat)
               a(1) = (  -0.500000   0.000000   0.500000 )  
               a(2) = (   0.000000   0.500000   0.500000 )  
               a(3) = (  -0.500000   0.500000   0.000000 )  

     reciprocal axes: (cart. coord. in units 2 pi/alat)
               b(1) = ( -1.000000 -1.000000  1.000000 )  
               b(2) = (  1.000000  1.000000  1.000000 )  
               b(3) = ( -1.000000  1.000000 -1.000000 )  


     PseudoPot. # 1 for Si read from file:
     ./pseudos/Si.nc.UPF
     MD5 check sum: 9e2d726316af3d4752eea8ab0afbb951
     Pseudo is Norm-conserving + core correction, Zval =  4.0
     Generated using ONCVPSP code by D. R. Hamann
     Using radial grid of 1510 points,  6 beta functions with: 
                l(1) =   0
                l(2) =   0
                l(3) =   1
                l(4) =   1
                l(5) =   2
                l(6) =   2

     atomic species   valence    mass     pseudopotential
        Si             4.00    28.08550     Si( 1.00)

     48 Sym. Ops., with inversion, found (24 have fractional translation)



   Cartesian axes

     site n.     atom                  positions (alat units)
         1           Si  tau(   1) = (   0.0000000   0.0000000   0.0000000  )
         2           Si  tau(   2) = (  -0.2500000   0.2500000   0.2500000  )

     number of k points=    28
                       cart. coord. in units 2pi/alat
        k(    1) = (  -0.0833333   0.0833333   0.0833333), wk =   0.0185185
        k(    2) = (  -0.2500000   0.2500000  -0.0833333), wk =   0.0555556
        k(    3) = (  -0.4166667   0.4166667  -0.2500000), wk =   0.0555556
        k(    4) = (   0.4166667  -0.4166667   0.5833333), wk =   0.0555556
        k(    5) = (   0.2500000  -0.2500000   0.4166667), wk =   0.0555556
        k(    6) = (   0.0833333  -0.0833333   0.2500000), wk =   0.0555556
        k(    7) = (  -0.0833333   0.4166667   0.0833333), wk =   0.0555556
        k(    8) = (  -0.2500000   0.5833333  -0.0833333), wk =   0.1111111
        k(    9) = (   0.5833333  -0.2500000   0.7500000), wk =   0.1111111
        k(   10) = (   0.4166667  -0.0833333   0.5833333), wk =   0.1111111
        k(   11) = (   0.2500000   0.0833333   0.4166667), wk =   0.1111111
        k(   12) = (  -0.0833333   0.7500000   0.0833333), wk =   0.0555556
        k(   13) = (   0.7500000  -0.0833333   0.9166667), wk =   0.1111111
        k(   14) = (   0.5833333   0.0833333   0.7500000), wk =   0.1111111
        k(   15) = (   0.4166667   0.2500000   0.5833333), wk =   0.1111111
        k(   16) = (  -0.0833333  -0.9166667   0.0833333), wk =   0.0555556
        k(   17) = (  -0.2500000  -0.7500000  -0.0833333), wk =   0.1111111
        k(   18) = (  -0.0833333  -0.5833333   0.0833333), wk =   0.0555556
        k(   19) = (  -0.2500000   0.2500000   0.2500000), wk =   0.0185185
        k(   20) = (  -0.4166667   0.4166667   0.0833333), wk =   0.0555556
        k(   21) = (   0.4166667  -0.4166667   0.9166667), wk =   0.0555556
        k(   22) = (   0.2500000  -0.2500000   0.7500000), wk =   0.0555556
        k(   23) = (  -0.2500000   0.5833333   0.2500000), wk =   0.0555556
        k(   24) = (   0.5833333  -0.2500000   1.0833333), wk =   0.1111111
        k(   25) = (   0.4166667  -0.0833333   0.9166667), wk =   0.1111111
        k(   26) = (  -0.2500000  -1.0833333   0.2500000), wk =   0.0555556
        k(   27) = (  -0.4166667   0.4166667   0.4166667), wk =   0.0185185
        k(   28) = (   0.4166667  -0.4166667   1.2500000), wk =   0.0555556

     Dense  grid:    20875 G-vectors     FFT dimensions: (  40,  40,  40)

     Estimated max dynamical RAM per process >       2.21 MB

     Estimated total dynamical RAM >      53.04 MB

     Initial potential from superposition of free atoms

     starting charge       7.9989, renormalised to       8.0000
     Starting wfcs are    8 randomized atomic wfcs

     total cpu time spent up to now is        0.2 secs

     Self-consistent Calculation

     iteration #  1     ecut=    70.00 Ry     beta= 0.70
     Davidson diagonalization with overlap
     ethr =  1.00E-02,  avg # of iterations =  2.0

     Threshold (ethr) on eigenvalues was too large:
     Diagonalizing with lowered threshold

     Davidson diagonalization with overlap
     ethr =  6.13E-04,  avg # of iterations =  2.0

     total cpu time spent up to now is        0.4 secs

     total energy              =     -17.04763592 Ry
     estimated scf accuracy    <       0.05800259 Ry

     iteration #  2     ecut=    70.00 Ry     beta= 0.70
     Davidson diagonalization with overlap
     ethr =  7.25E-04,  avg # of iterations =  1.0

     total cpu time spent up to now is        0.4 secs

     total energy              =     -17.04996468 Ry
     estimated scf accuracy    <       0.00249031 Ry

     iteration #  3     ecut=    70.00 Ry     beta= 0.70
     Davidson diagonalization with overlap
     ethr =  3.11E-05,  avg # of iterations =  3.0

     total cpu time spent up to now is        0.5 secs

     total energy              =     -17.05083028 Ry
     estimated scf accuracy    <       0.00009484 Ry

     iteration #  4     ecut=    70.00 Ry     beta= 0.70
     Davidson diagonalization with overlap
     ethr =  1.19E-06,  avg # of iterations =  4.3

     total cpu time spent up to now is        0.7 secs

     total energy              =     -17.05089798 Ry
     estimated scf accuracy    <       0.00000294 Ry

     iteration #  5     ecut=    70.00 Ry     beta= 0.70
     Davidson diagonalization with overlap
     ethr =  3.67E-08,  avg # of iterations =  4.6

     total cpu time spent up to now is        0.8 secs

     total energy              =     -17.05090100 Ry
     estimated scf accuracy    <       0.00000015 Ry

     iteration #  6     ecut=    70.00 Ry     beta= 0.70
     Davidson diagonalization with overlap
     ethr =  1.85E-09,  avg # of iterations =  3.2

     total cpu time spent up to now is        0.9 secs

     total energy              =     -17.05090106 Ry
     estimated scf accuracy    <       0.00000002 Ry

     iteration #  7     ecut=    70.00 Ry     beta= 0.70
     Davidson diagonalization with overlap
     ethr =  2.15E-10,  avg # of iterations =  3.0

     total cpu time spent up to now is        1.0 secs

     End of self-consistent calculation

          k =-0.0833 0.0833 0.0833 (  2667 PWs)   bands (ev):

    -5.7561   5.3866   6.1106   6.1106

          k =-0.2500 0.2500-0.0833 (  2621 PWs)   bands (ev):

    -5.2692   3.2787   4.8359   5.9020

          k =-0.4167 0.4167-0.2500 (  2618 PWs)   bands (ev):

    -4.1491   0.4558   4.3704   5.2525

          k = 0.4167-0.4167 0.5833 (  2604 PWs)   bands (ev):

    -3.4239  -0.7235   4.4440   4.8612

          k = 0.2500-0.2500 0.4167 (  2618 PWs)   bands (ev):

    -4.5725   1.3222   4.9163   4.9543

          k = 0.0833-0.0833 0.2500 (  2643 PWs)   bands (ev):

    -5.5104   4.3092   5.4447   5.6431

          k =-0.0833 0.4167 0.0833 (  2627 PWs)   bands (ev):

    -5.0231   3.1094   4.6844   4.6977

          k =-0.2500 0.5833-0.0833 (  2613 PWs)   bands (ev):

    -4.0918   1.2428   3.3199   4.3008

          k = 0.5833-0.2500 0.7500 (  2616 PWs)   bands (ev):

    -2.9383  -0.5645   2.7090   4.0651

          k = 0.4167-0.0833 0.5833 (  2617 PWs)   bands (ev):

    -3.6856   0.5301   2.6549   4.5685

          k = 0.2500 0.0833 0.4167 (  2624 PWs)   bands (ev):

    -4.7922   2.2460   4.0374   5.2604

          k =-0.0833 0.7500 0.0833 (  2617 PWs)   bands (ev):

    -3.3664   0.4197   3.2861   3.6484

          k = 0.7500-0.0833 0.9167 (  2608 PWs)   bands (ev):

    -2.1400  -0.9430   2.4039   3.2177

          k = 0.5833 0.0833 0.7500 (  2608 PWs)   bands (ev):

    -2.5099  -0.6178   1.9049   3.7798

          k = 0.4167 0.2500 0.5833 (  2622 PWs)   bands (ev):

    -3.5664  -0.1967   3.6417   4.6731

          k =-0.0833-0.9167 0.0833 (  2604 PWs)   bands (ev):

    -2.2385  -0.9535   3.0091   3.4290

          k =-0.2500-0.7500-0.0833 (  2615 PWs)   bands (ev):

    -3.1914   0.1893   2.7413   3.5675

          k =-0.0833-0.5833 0.0833 (  2620 PWs)   bands (ev):

    -4.3033   1.8031   3.8480   4.0788

          k =-0.2500 0.2500 0.2500 (  2632 PWs)   bands (ev):

    -5.0343   2.2731   5.4857   5.4857

          k =-0.4167 0.4167 0.0833 (  2620 PWs)   bands (ev):

    -4.3392   1.3430   3.2813   5.3165

          k = 0.4167-0.4167 0.9167 (  2613 PWs)   bands (ev):

    -3.1274  -0.1140   2.1362   4.5076

          k = 0.2500-0.2500 0.7500 (  2618 PWs)   bands (ev):

    -3.0761  -0.1941   2.6355   4.0115

          k =-0.2500 0.5833 0.2500 (  2613 PWs)   bands (ev):

    -3.9042   0.5133   3.7736   4.3933

          k = 0.5833-0.2500 1.0833 (  2619 PWs)   bands (ev):

    -2.8765  -0.2149   2.2381   3.5572

          k = 0.4167-0.0833 0.9167 (  2613 PWs)   bands (ev):

    -2.0245  -0.9506   2.0592   2.8637

          k =-0.2500-1.0833 0.2500 (  2605 PWs)   bands (ev):

    -2.2385  -0.8649   1.9289   3.8127

          k =-0.4167 0.4167 0.4167 (  2602 PWs)   bands (ev):

    -3.8074  -0.3119   5.0941   5.0941

          k = 0.4167-0.4167 1.2500 (  2605 PWs)   bands (ev):

    -3.1840  -0.6106   3.2018   4.6388

     highest occupied level (ev):     6.1106

!    total energy              =     -17.05090107 Ry
     estimated scf accuracy    <          1.9E-11 Ry

     The total energy is the sum of the following terms:
     one-electron contribution =       5.01080416 Ry
     hartree contribution      =       1.07710790 Ry
     xc contribution           =      -6.22231185 Ry
     ewald contribution        =     -16.91650128 Ry

     convergence has been achieved in   7 iterations

     Forces acting on atoms (cartesian axes, Ry/au):

     atom    1 type  1   force =     0.00000000    0.00000000    0.00000000
     atom    2 type  1   force =     0.00000000    0.00000000   -0.00000000

     Total force =     0.000000     Total SCF correction =     0.000000

     Writing all to output data dir /fastscratch/tsievers/QE_TMP_DIR/silicon_ph_bench_nd_1_n_procs_24_2.save/
 
     init_run     :      0.06s CPU      0.10s WALL (       1 calls)
     electrons    :      0.80s CPU      0.87s WALL (       1 calls)
     forces       :      0.01s CPU      0.01s WALL (       1 calls)

     Called by init_run:
     wfcinit      :      0.04s CPU      0.05s WALL (       1 calls)
     potinit      :      0.00s CPU      0.00s WALL (       1 calls)
     hinit0       :      0.01s CPU      0.04s WALL (       1 calls)

     Called by electrons:
     c_bands      :      0.70s CPU      0.74s WALL (       8 calls)
     sum_band     :      0.09s CPU      0.09s WALL (       8 calls)
     v_of_rho     :      0.00s CPU      0.00s WALL (       8 calls)
     mix_rho      :      0.00s CPU      0.00s WALL (       8 calls)

     Called by c_bands:
     init_us_2    :      0.02s CPU      0.02s WALL (     504 calls)
     init_us_2:cp :      0.02s CPU      0.02s WALL (     504 calls)
     cegterg      :      0.62s CPU      0.65s WALL (     224 calls)

     Called by *egterg:
     cdiaghg      :      0.04s CPU      0.04s WALL (     847 calls)
     h_psi        :      0.55s CPU      0.58s WALL (     903 calls)
     g_psi        :      0.00s CPU      0.00s WALL (     651 calls)

     Called by h_psi:
     h_psi:calbec :      0.04s CPU      0.04s WALL (     903 calls)
     vloc_psi     :      0.48s CPU      0.51s WALL (     903 calls)
     add_vuspsi   :      0.02s CPU      0.02s WALL (     903 calls)

     General routines
     calbec       :      0.04s CPU      0.05s WALL (    1015 calls)
     fft          :      0.00s CPU      0.04s WALL (      28 calls)
     ffts         :      0.00s CPU      0.00s WALL (       8 calls)
     fftw         :      0.53s CPU      0.55s WALL (    7030 calls)
 
     Parallel routines
 
     PWSCF        :      0.94s CPU      1.45s WALL

 
   This run was terminated on:   2: 4:11  27Jun2022            

=------------------------------------------------------------------------------=
   JOB DONE.
=------------------------------------------------------------------------------=

     Program PHONON v.7.0 starts on 27Jun2022 at  2: 4:14 

     This program is part of the open-source Quantum ESPRESSO suite
     for quantum simulation of materials; please cite
         "P. Giannozzi et al., J. Phys.:Condens. Matter 21 395502 (2009);
         "P. Giannozzi et al., J. Phys.:Condens. Matter 29 465901 (2017);
         "P. Giannozzi et al., J. Chem. Phys. 152 154105 (2020);
          URL http://www.quantum-espresso.org", 
     in publications or presentations arising from this work. More details at
     http://www.quantum-espresso.org/quote

     Parallel version (MPI), running on    24 processors

     MPI processes distributed on     2 nodes
     R & G space division:  proc/nbgrp/npool/nimage =      24
     3095 MiB available memory on the printing compute node when the environment starts
 
     Reading input from in_files/silicon_ph_bench_nd_1_n_procs_24_2.ph
      Title line not specified: using 'default'.

     Reading xml data from directory:

     /fastscratch/tsievers/QE_TMP_DIR/silicon_ph_bench_nd_1_n_procs_24_2.save/

     IMPORTANT: XC functional enforced from input :
     Exchange-correlation= PW
                           (   1   4   0   0   0   0   0)
     Any further DFT definition will be discarded
     Please, verify this is what you really want

 
     Parallelization info
     --------------------
     sticks:   dense  smooth     PW     G-vecs:    dense   smooth      PW
     Min          41      41     12                  868      868     143
     Max          42      42     13                  871      871     146
     Sum        1003    1003    301                20875    20875    3479
 
     Using Slab Decomposition
 
     Reading collected, re-writing distributed wavefunctions


     Dynamical matrices for ( 6, 6, 6)  uniform grid of q-points
     (  16 q-points):
       N         xq(1)         xq(2)         xq(3) 
       1   0.000000000   0.000000000   0.000000000
       2  -0.166666667   0.166666667  -0.166666667
       3  -0.333333333   0.333333333  -0.333333333
       4   0.500000000  -0.500000000   0.500000000
       5   0.000000000   0.333333333   0.000000000
       6  -0.166666667   0.500000000  -0.166666667
       7   0.666666667  -0.333333333   0.666666667
       8   0.500000000  -0.166666667   0.500000000
       9   0.333333333   0.000000000   0.333333333
      10   0.000000000   0.666666667   0.000000000
      11   0.833333333  -0.166666667   0.833333333
      12   0.666666667  -0.000000000   0.666666667
      13   0.000000000  -1.000000000   0.000000000
      14   0.666666667  -0.333333333   1.000000000
      15   0.500000000  -0.166666667   0.833333333
      16  -0.333333333  -1.000000000   0.000000000

     Calculation of q =    0.0000000   0.0000000   0.0000000

     default                                                                    

     bravais-lattice index     =            2
     lattice parameter (alat)  =      10.1899  a.u.
     unit-cell volume          =     264.5151 (a.u.)^3
     number of atoms/cell      =            2
     number of atomic types    =            1
     kinetic-energy cut-off    =      70.0000  Ry
     charge density cut-off    =     280.0000  Ry
     convergence threshold     =      1.0E-15
     beta                      =       0.7000
     number of iterations used =            4
     Exchange-correlation= PW
                           (   1   4   0   0   0   0   0)


     celldm(1)=   10.18990  celldm(2)=    0.00000  celldm(3)=    0.00000
     celldm(4)=    0.00000  celldm(5)=    0.00000  celldm(6)=    0.00000

     crystal axes: (cart. coord. in units of alat)
               a(1) = ( -0.5000  0.0000  0.5000 )  
               a(2) = (  0.0000  0.5000  0.5000 )  
               a(3) = ( -0.5000  0.5000  0.0000 )  

     reciprocal axes: (cart. coord. in units 2 pi/alat)
               b(1) = ( -1.0000 -1.0000  1.0000 )  
               b(2) = (  1.0000  1.0000  1.0000 )  
               b(3) = ( -1.0000  1.0000 -1.0000 )  


     Atoms inside the unit cell: 

     Cartesian axes

     site n.  atom      mass           positions (alat units)
        1     Si  28.0855   tau(    1) = (    0.00000    0.00000    0.00000  )
        2     Si  28.0855   tau(    2) = (   -0.25000    0.25000    0.25000  )

     Computing dynamical matrix for 
                    q = (   0.0000000   0.0000000   0.0000000 )
 
     49 Sym.Ops. (with q -> -q+G )


     G cutoff =  736.4420  (    871 G-vectors)     FFT grid: ( 40, 40, 40)
     number of k points=    28

     PseudoPot. # 1 for Si read from file:
     ./pseudos/Si.nc.UPF
     MD5 check sum: 9e2d726316af3d4752eea8ab0afbb951
     Pseudo is Norm-conserving + core correction, Zval =  4.0
     Generated using ONCVPSP code by D. R. Hamann
     Using radial grid of 1510 points,  6 beta functions with: 
                l(1) =   0
                l(2) =   0
                l(3) =   1
                l(4) =   1
                l(5) =   2
                l(6) =   2

     Mode symmetry, O_h (m-3m)  point group:


     Electric field:
     Dielectric constant
     Born effective charges in two ways 


     Atomic displacements:
     There are    2 irreducible representations

     Representation     1      3 modes -  To be done

     Representation     2      3 modes -  To be done



     Alpha used in Ewald sum =   2.8000
     PHONON       :      0.27s CPU      1.11s WALL


     Electric Fields Calculation

      iter #   1 total cpu time :     3.5 secs   av.it.:   6.5
      thresh= 1.000E-02 alpha_mix =  0.700 |ddv_scf|^2 =  7.990E-08

      iter #   2 total cpu time :     4.9 secs   av.it.:  11.9
      thresh= 2.827E-05 alpha_mix =  0.700 |ddv_scf|^2 =  3.424E-09

      iter #   3 total cpu time :     6.1 secs   av.it.:  11.7
      thresh= 5.852E-06 alpha_mix =  0.700 |ddv_scf|^2 =  3.860E-11

      iter #   4 total cpu time :     7.7 secs   av.it.:  12.0
      thresh= 6.213E-07 alpha_mix =  0.700 |ddv_scf|^2 =  2.290E-13

      iter #   5 total cpu time :     8.9 secs   av.it.:  11.0
      thresh= 4.785E-08 alpha_mix =  0.700 |ddv_scf|^2 =  8.406E-17

     End of electric fields calculation

          Dielectric constant in cartesian axis 

          (      13.312050249      -0.000000000       0.000000000 )
          (      -0.000000000      13.312050249       0.000000000 )
          (       0.000000000       0.000000000      13.312050249 )

          Effective charges (d Force / dE) in cartesian axis without acoustic sum rule applied (asr)

           atom      1   Si Mean Z*:       -0.00676
      Ex  (       -0.00676       -0.00000       -0.00000 )
      Ey  (       -0.00000       -0.00676        0.00000 )
      Ez  (       -0.00000        0.00000       -0.00676 )
           atom      2   Si Mean Z*:       -0.00676
      Ex  (       -0.00676       -0.00000        0.00000 )
      Ey  (        0.00000       -0.00676        0.00000 )
      Ez  (        0.00000        0.00000       -0.00676 )

          Effective charges Sum: Mean:       -0.01353
             -0.01353       -0.00000       -0.00000
             -0.00000       -0.01353        0.00000
             -0.00000        0.00000       -0.01353

          Effective charges (d Force / dE) in cartesian axis with asr applied: 
           atom      1   Si Mean Z*:       -0.00000
      E*x (       -0.00000       -0.00000       -0.00000 )
      E*y (       -0.00000       -0.00000        0.00000 )
      E*z (       -0.00000        0.00000       -0.00000 )
           atom      2   Si Mean Z*:        0.00000
      E*x (        0.00000        0.00000        0.00000 )
      E*y (        0.00000        0.00000       -0.00000 )
      E*z (        0.00000       -0.00000        0.00000 )


     Representation #   1 modes #   1   2   3

     Self-consistent Calculation

      iter #   1 total cpu time :    10.1 secs   av.it.:   5.9
      thresh= 1.000E-02 alpha_mix =  0.700 |ddv_scf|^2 =  1.152E-08

      iter #   2 total cpu time :    11.4 secs   av.it.:  11.8
      thresh= 1.073E-05 alpha_mix =  0.700 |ddv_scf|^2 =  2.588E-10

      iter #   3 total cpu time :    12.8 secs   av.it.:  11.8
      thresh= 1.609E-06 alpha_mix =  0.700 |ddv_scf|^2 =  9.661E-12

      iter #   4 total cpu time :    14.1 secs   av.it.:  11.6
      thresh= 3.108E-07 alpha_mix =  0.700 |ddv_scf|^2 =  3.129E-14

      iter #   5 total cpu time :    15.4 secs   av.it.:  12.0
      thresh= 1.769E-08 alpha_mix =  0.700 |ddv_scf|^2 =  1.453E-16

     End of self-consistent calculation

     Convergence has been achieved 


     Representation #   2 modes #   4   5   6

     Self-consistent Calculation

      iter #   1 total cpu time :    16.4 secs   av.it.:   6.0
      thresh= 1.000E-02 alpha_mix =  0.700 |ddv_scf|^2 =  8.313E-09

      iter #   2 total cpu time :    17.8 secs   av.it.:  12.0
      thresh= 9.118E-06 alpha_mix =  0.700 |ddv_scf|^2 =  2.989E-10

      iter #   3 total cpu time :    19.3 secs   av.it.:  11.9
      thresh= 1.729E-06 alpha_mix =  0.700 |ddv_scf|^2 =  1.361E-11

      iter #   4 total cpu time :    20.7 secs   av.it.:  11.9
      thresh= 3.689E-07 alpha_mix =  0.700 |ddv_scf|^2 =  2.436E-14

      iter #   5 total cpu time :    22.0 secs   av.it.:  12.1
      thresh= 1.561E-08 alpha_mix =  0.700 |ddv_scf|^2 =  6.550E-17

     End of self-consistent calculation

     Convergence has been achieved 
 
     Number of q in the star =    1
     List of q in the star:
          1   0.000000000   0.000000000   0.000000000

          Dielectric constant in cartesian axis 

          (      13.312050249      -0.000000000       0.000000000 )
          (      -0.000000000      13.312050249       0.000000000 )
          (       0.000000000       0.000000000      13.312050249 )

          Effective charges (d Force / dE) in cartesian axis without acoustic sum rule applied (asr)

           atom      1   Si Mean Z*:       -0.00676
      Ex  (       -0.00676       -0.00000       -0.00000 )
      Ey  (       -0.00000       -0.00676        0.00000 )
      Ez  (       -0.00000        0.00000       -0.00676 )
           atom      2   Si Mean Z*:       -0.00676
      Ex  (       -0.00676       -0.00000        0.00000 )
      Ey  (        0.00000       -0.00676        0.00000 )
      Ez  (        0.00000        0.00000       -0.00676 )

          Effective charges Sum: Mean:       -0.01353
             -0.01353       -0.00000       -0.00000
             -0.00000       -0.01353        0.00000
             -0.00000        0.00000       -0.01353

          Effective charges (d Force / dE) in cartesian axis with asr applied: 
           atom      1   Si Mean Z*:       -0.00000
      E*x (       -0.00000       -0.00000       -0.00000 )
      E*y (       -0.00000       -0.00000        0.00000 )
      E*z (       -0.00000        0.00000       -0.00000 )
           atom      2   Si Mean Z*:        0.00000
      E*x (        0.00000        0.00000        0.00000 )
      E*y (        0.00000        0.00000       -0.00000 )
      E*z (        0.00000       -0.00000        0.00000 )

          Effective charges (d P / du) in cartesian axis 

           atom      1   Si 
      Px  (       -0.00683       -0.00000       -0.00000 )
      Py  (       -0.00000       -0.00683        0.00000 )
      Pz  (       -0.00000        0.00000       -0.00683 )
           atom      2   Si 
      Px  (       -0.00683        0.00000        0.00000 )
      Py  (        0.00000       -0.00683       -0.00000 )
      Pz  (        0.00000       -0.00000       -0.00683 )

     Diagonalizing the dynamical matrix

     q = (    0.000000000   0.000000000   0.000000000 ) 

 **************************************************************************
     freq (    1) =      -0.112881 [THz] =      -3.765310 [cm-1]
     freq (    2) =      -0.112881 [THz] =      -3.765310 [cm-1]
     freq (    3) =      -0.112881 [THz] =      -3.765310 [cm-1]
     freq (    4) =      15.412127 [THz] =     514.093205 [cm-1]
     freq (    5) =      15.412127 [THz] =     514.093205 [cm-1]
     freq (    6) =      15.412127 [THz] =     514.093205 [cm-1]
 **************************************************************************

     Mode symmetry, O_h (m-3m)  point group:

     freq (   1-   3) =         -3.8  [cm-1]   --> T_1u G_15  G_4- I  
     freq (   4-   6) =        514.1  [cm-1]   --> T_2g G_25' G_5+ R  

     Calculation of q =   -0.1666667   0.1666667  -0.1666667

     Subspace diagonalization in iterative solution of the eigenvalue problem:
     a serial algorithm will be used

 
     Parallelization info
     --------------------
     sticks:   dense  smooth     PW     G-vecs:    dense   smooth      PW
     Min          41      41     13                  868      868     153
     Max          42      42     14                  871      871     156
     Sum        1003    1003    313                20875    20875    3695
 
     Using Slab Decomposition
 

     Title: 
     default                                                                    


     bravais-lattice index     =            2
     lattice parameter (alat)  =      10.1899  a.u.
     unit-cell volume          =     264.5151 (a.u.)^3
     number of atoms/cell      =            2
     number of atomic types    =            1
     number of electrons       =         8.00
     number of Kohn-Sham states=            4
     kinetic-energy cutoff     =      70.0000  Ry
     charge density cutoff     =     280.0000  Ry
     Exchange-correlation= PW
                           (   1   4   0   0   0   0   0)

     celldm(1)=  10.189905  celldm(2)=   0.000000  celldm(3)=   0.000000
     celldm(4)=   0.000000  celldm(5)=   0.000000  celldm(6)=   0.000000

     crystal axes: (cart. coord. in units of alat)
               a(1) = (  -0.500000   0.000000   0.500000 )  
               a(2) = (   0.000000   0.500000   0.500000 )  
               a(3) = (  -0.500000   0.500000   0.000000 )  

     reciprocal axes: (cart. coord. in units 2 pi/alat)
               b(1) = ( -1.000000 -1.000000  1.000000 )  
               b(2) = (  1.000000  1.000000  1.000000 )  
               b(3) = ( -1.000000  1.000000 -1.000000 )  


     PseudoPot. # 1 for Si read from file:
     ./pseudos/Si.nc.UPF
     MD5 check sum: 9e2d726316af3d4752eea8ab0afbb951
     Pseudo is Norm-conserving + core correction, Zval =  4.0
     Generated using ONCVPSP code by D. R. Hamann
     Using radial grid of 1510 points,  6 beta functions with: 
                l(1) =   0
                l(2) =   0
                l(3) =   1
                l(4) =   1
                l(5) =   2
                l(6) =   2

     atomic species   valence    mass     pseudopotential
        Si             4.00    28.08550     Si( 1.00)

     48 Sym. Ops., with inversion, found



   Cartesian axes

     site n.     atom                  positions (alat units)
         1           Si  tau(   1) = (   0.0000000   0.0000000   0.0000000  )
         2           Si  tau(   2) = (  -0.2500000   0.2500000   0.2500000  )

     number of k points=   364

     Number of k-points >= 100: set verbosity='high' to print them.

     Dense  grid:    20875 G-vectors     FFT dimensions: (  40,  40,  40)

     Estimated max dynamical RAM per process >       1.82 MB

     Estimated total dynamical RAM >      43.79 MB

     The potential is recalculated from file :
     /fastscratch/tsievers/QE_TMP_DIR/_ph0/silicon_ph_bench_nd_1_n_procs_24_2.save/charge-density

     Starting wfcs are    8 atomic wfcs

     Band Structure Calculation
     Davidson diagonalization with overlap

     ethr =  1.25E-10,  avg # of iterations = 12.9

     total cpu time spent up to now is        4.9 secs

     End of band structure calculation

     Number of k-points >= 100: set verbosity='high' to print the bands.

     highest occupied level (ev):     6.1106

     Writing config to output data dir /fastscratch/tsievers/QE_TMP_DIR/_ph0/silicon_ph_bench_nd_1_n_procs_24_2.save/

     default                                                                    

     bravais-lattice index     =            2
     lattice parameter (alat)  =      10.1899  a.u.
     unit-cell volume          =     264.5151 (a.u.)^3
     number of atoms/cell      =            2
     number of atomic types    =            1
     kinetic-energy cut-off    =      70.0000  Ry
     charge density cut-off    =     280.0000  Ry
     convergence threshold     =      1.0E-15
     beta                      =       0.7000
     number of iterations used =            4
     Exchange-correlation= PW
                           (   1   4   0   0   0   0   0)


     celldm(1)=   10.18990  celldm(2)=    0.00000  celldm(3)=    0.00000
     celldm(4)=    0.00000  celldm(5)=    0.00000  celldm(6)=    0.00000

     crystal axes: (cart. coord. in units of alat)
               a(1) = ( -0.5000  0.0000  0.5000 )  
               a(2) = (  0.0000  0.5000  0.5000 )  
               a(3) = ( -0.5000  0.5000  0.0000 )  

     reciprocal axes: (cart. coord. in units 2 pi/alat)
               b(1) = ( -1.0000 -1.0000  1.0000 )  
               b(2) = (  1.0000  1.0000  1.0000 )  
               b(3) = ( -1.0000  1.0000 -1.0000 )  


     Atoms inside the unit cell: 

     Cartesian axes

     site n.  atom      mass           positions (alat units)
        1     Si  28.0855   tau(    1) = (    0.00000    0.00000    0.00000  )
        2     Si  28.0855   tau(    2) = (   -0.25000    0.25000    0.25000  )

     Computing dynamical matrix for 
                    q = (  -0.1666667   0.1666667  -0.1666667 )
 
      6 Sym.Ops. (no q -> -q+G )


     G cutoff =  736.4420  (    871 G-vectors)     FFT grid: ( 40, 40, 40)
     number of k points=   364

     PseudoPot. # 1 for Si read from file:
     ./pseudos/Si.nc.UPF
     MD5 check sum: 9e2d726316af3d4752eea8ab0afbb951
     Pseudo is Norm-conserving + core correction, Zval =  4.0
     Generated using ONCVPSP code by D. R. Hamann
     Using radial grid of 1510 points,  6 beta functions with: 
                l(1) =   0
                l(2) =   0
                l(3) =   1
                l(4) =   1
                l(5) =   2
                l(6) =   2

     Mode symmetry, C_3v (3m)   point group:


     Atomic displacements:
     There are    4 irreducible representations

     Representation     1      1 modes -  To be done

     Representation     2      1 modes -  To be done

     Representation     3      2 modes -  To be done

     Representation     4      2 modes -  To be done



     Alpha used in Ewald sum =   2.8000
     PHONON       :     23.63s CPU     28.74s WALL



     Representation #   1 mode #   1

     Self-consistent Calculation

      iter #   1 total cpu time :    30.2 secs   av.it.:   6.6
      thresh= 1.000E-02 alpha_mix =  0.700 |ddv_scf|^2 =  1.078E-03

      iter #   2 total cpu time :    32.1 secs   av.it.:   9.0
      thresh= 3.283E-03 alpha_mix =  0.700 |ddv_scf|^2 =  3.531E-02

      iter #   3 total cpu time :    33.7 secs   av.it.:   7.6
      thresh= 1.000E-02 alpha_mix =  0.700 |ddv_scf|^2 =  2.876E-07

      iter #   4 total cpu time :    35.6 secs   av.it.:   9.2
      thresh= 5.362E-05 alpha_mix =  0.700 |ddv_scf|^2 =  9.391E-09

      iter #   5 total cpu time :    37.5 secs   av.it.:   9.6
      thresh= 9.691E-06 alpha_mix =  0.700 |ddv_scf|^2 =  4.417E-10

      iter #   6 total cpu time :    39.3 secs   av.it.:   8.7
      thresh= 2.102E-06 alpha_mix =  0.700 |ddv_scf|^2 =  1.180E-09

      iter #   7 total cpu time :    40.9 secs   av.it.:   8.0
      thresh= 3.435E-06 alpha_mix =  0.700 |ddv_scf|^2 =  6.643E-11

      iter #   8 total cpu time :    42.8 secs   av.it.:   8.6
      thresh= 8.151E-07 alpha_mix =  0.700 |ddv_scf|^2 =  5.110E-13

      iter #   9 total cpu time :    44.6 secs   av.it.:   8.3
      thresh= 7.148E-08 alpha_mix =  0.700 |ddv_scf|^2 =  1.163E-14

      iter #  10 total cpu time :    46.3 secs   av.it.:   8.7
      thresh= 1.078E-08 alpha_mix =  0.700 |ddv_scf|^2 =  1.135E-15

      iter #  11 total cpu time :    48.2 secs   av.it.:   9.1
      thresh= 3.370E-09 alpha_mix =  0.700 |ddv_scf|^2 =  9.533E-17

     End of self-consistent calculation

     Convergence has been achieved 


     Representation #   2 mode #   2

     Self-consistent Calculation

      iter #   1 total cpu time :    50.4 secs   av.it.:   6.6
      thresh= 1.000E-02 alpha_mix =  0.700 |ddv_scf|^2 =  1.078E-03

      iter #   2 total cpu time :    52.3 secs   av.it.:   9.0
      thresh= 3.283E-03 alpha_mix =  0.700 |ddv_scf|^2 =  3.531E-02

      iter #   3 total cpu time :    53.9 secs   av.it.:   7.6
      thresh= 1.000E-02 alpha_mix =  0.700 |ddv_scf|^2 =  2.876E-07

      iter #   4 total cpu time :    55.7 secs   av.it.:   9.2
      thresh= 5.362E-05 alpha_mix =  0.700 |ddv_scf|^2 =  9.391E-09

      iter #   5 total cpu time :    57.6 secs   av.it.:   9.6
      thresh= 9.691E-06 alpha_mix =  0.700 |ddv_scf|^2 =  4.417E-10

      iter #   6 total cpu time :    59.4 secs   av.it.:   8.7
      thresh= 2.102E-06 alpha_mix =  0.700 |ddv_scf|^2 =  1.180E-09

      iter #   7 total cpu time :    61.1 secs   av.it.:   8.0
      thresh= 3.435E-06 alpha_mix =  0.700 |ddv_scf|^2 =  6.643E-11

      iter #   8 total cpu time :    63.4 secs   av.it.:   8.6
      thresh= 8.151E-07 alpha_mix =  0.700 |ddv_scf|^2 =  5.110E-13

      iter #   9 total cpu time :    65.2 secs   av.it.:   8.3
      thresh= 7.148E-08 alpha_mix =  0.700 |ddv_scf|^2 =  1.163E-14

      iter #  10 total cpu time :    67.0 secs   av.it.:   8.7
      thresh= 1.078E-08 alpha_mix =  0.700 |ddv_scf|^2 =  1.135E-15

      iter #  11 total cpu time :    68.9 secs   av.it.:   9.1
      thresh= 3.369E-09 alpha_mix =  0.700 |ddv_scf|^2 =  9.538E-17

     End of self-consistent calculation

     Convergence has been achieved 


     Representation #   3 modes #   3   4

     Self-consistent Calculation

      iter #   1 total cpu time :    71.7 secs   av.it.:   6.1
      thresh= 1.000E-02 alpha_mix =  0.700 |ddv_scf|^2 =  2.811E-08

      iter #   2 total cpu time :    76.1 secs   av.it.:  11.5
      thresh= 1.677E-05 alpha_mix =  0.700 |ddv_scf|^2 =  1.251E-09

      iter #   3 total cpu time :    80.5 secs   av.it.:  11.4
      thresh= 3.537E-06 alpha_mix =  0.700 |ddv_scf|^2 =  3.267E-11

      iter #   4 total cpu time :    84.8 secs   av.it.:  11.5
      thresh= 5.715E-07 alpha_mix =  0.700 |ddv_scf|^2 =  3.769E-13

      iter #   5 total cpu time :    89.2 secs   av.it.:  11.5
      thresh= 6.139E-08 alpha_mix =  0.700 |ddv_scf|^2 =  7.998E-15

      iter #   6 total cpu time :    94.8 secs   av.it.:  11.8
      thresh= 8.943E-09 alpha_mix =  0.700 |ddv_scf|^2 =  3.632E-17

     End of self-consistent calculation

     Convergence has been achieved 


     Representation #   4 modes #   5   6

     Self-consistent Calculation

      iter #   1 total cpu time :    97.6 secs   av.it.:   6.0
      thresh= 1.000E-02 alpha_mix =  0.700 |ddv_scf|^2 =  2.811E-08

      iter #   2 total cpu time :   102.1 secs   av.it.:  11.5
      thresh= 1.677E-05 alpha_mix =  0.700 |ddv_scf|^2 =  1.251E-09

      iter #   3 total cpu time :   106.4 secs   av.it.:  11.4
      thresh= 3.538E-06 alpha_mix =  0.700 |ddv_scf|^2 =  3.267E-11

      iter #   4 total cpu time :   110.8 secs   av.it.:  11.5
      thresh= 5.715E-07 alpha_mix =  0.700 |ddv_scf|^2 =  3.770E-13

      iter #   5 total cpu time :   115.2 secs   av.it.:  11.4
      thresh= 6.140E-08 alpha_mix =  0.700 |ddv_scf|^2 =  8.009E-15

      iter #   6 total cpu time :   119.6 secs   av.it.:  11.8
      thresh= 8.949E-09 alpha_mix =  0.700 |ddv_scf|^2 =  3.631E-17

     End of self-consistent calculation

     Convergence has been achieved 
 
     Number of q in the star =    8
     List of q in the star:
          1  -0.166666667   0.166666667  -0.166666667
          2   0.166666667   0.166666667   0.166666667
          3  -0.166666667  -0.166666667  -0.166666667
          4   0.166666667  -0.166666667   0.166666667
          5   0.166666667  -0.166666667  -0.166666667
          6   0.166666667   0.166666667  -0.166666667
          7  -0.166666667  -0.166666667   0.166666667
          8  -0.166666667   0.166666667   0.166666667

     Diagonalizing the dynamical matrix

     q = (   -0.166666667   0.166666667  -0.166666667 ) 

 **************************************************************************
     freq (    1) =       2.202815 [THz] =      73.478003 [cm-1]
     freq (    2) =       2.202815 [THz] =      73.478003 [cm-1]
     freq (    3) =       4.747987 [THz] =     158.375787 [cm-1]
     freq (    4) =      15.023901 [THz] =     501.143410 [cm-1]
     freq (    5) =      15.065900 [THz] =     502.544317 [cm-1]
     freq (    6) =      15.065900 [THz] =     502.544317 [cm-1]
 **************************************************************************

     Mode symmetry, C_3v (3m)   point group:

     freq (   1-   2) =         73.5  [cm-1]   --> E    L_3           
     freq (   3-   3) =        158.4  [cm-1]   --> A_1  L_1           
     freq (   4-   4) =        501.1  [cm-1]   --> A_1  L_1           
     freq (   5-   6) =        502.5  [cm-1]   --> E    L_3           

     Calculation of q =   -0.3333333   0.3333333  -0.3333333
 
     Parallelization info
     --------------------
     sticks:   dense  smooth     PW     G-vecs:    dense   smooth      PW
     Min          41      41     13                  868      868     159
     Max          42      42     14                  871      871     164
     Sum        1003    1003    313                20875    20875    3839
 
     Using Slab Decomposition
 

     Title: 
     default                                                                    


     bravais-lattice index     =            2
     lattice parameter (alat)  =      10.1899  a.u.
     unit-cell volume          =     264.5151 (a.u.)^3
     number of atoms/cell      =            2
     number of atomic types    =            1
     number of electrons       =         8.00
     number of Kohn-Sham states=            4
     kinetic-energy cutoff     =      70.0000  Ry
     charge density cutoff     =     280.0000  Ry
     Exchange-correlation= PW
                           (   1   4   0   0   0   0   0)

     celldm(1)=  10.189905  celldm(2)=   0.000000  celldm(3)=   0.000000
     celldm(4)=   0.000000  celldm(5)=   0.000000  celldm(6)=   0.000000

     crystal axes: (cart. coord. in units of alat)
               a(1) = (  -0.500000   0.000000   0.500000 )  
               a(2) = (   0.000000   0.500000   0.500000 )  
               a(3) = (  -0.500000   0.500000   0.000000 )  

     reciprocal axes: (cart. coord. in units 2 pi/alat)
               b(1) = ( -1.000000 -1.000000  1.000000 )  
               b(2) = (  1.000000  1.000000  1.000000 )  
               b(3) = ( -1.000000  1.000000 -1.000000 )  


     PseudoPot. # 1 for Si read from file:
     ./pseudos/Si.nc.UPF
     MD5 check sum: 9e2d726316af3d4752eea8ab0afbb951
     Pseudo is Norm-conserving + core correction, Zval =  4.0
     Generated using ONCVPSP code by D. R. Hamann
     Using radial grid of 1510 points,  6 beta functions with: 
                l(1) =   0
                l(2) =   0
                l(3) =   1
                l(4) =   1
                l(5) =   2
                l(6) =   2

     atomic species   valence    mass     pseudopotential
        Si             4.00    28.08550     Si( 1.00)

     48 Sym. Ops., with inversion, found



   Cartesian axes

     site n.     atom                  positions (alat units)
         1           Si  tau(   1) = (   0.0000000   0.0000000   0.0000000  )
         2           Si  tau(   2) = (  -0.2500000   0.2500000   0.2500000  )

     number of k points=   364

     Number of k-points >= 100: set verbosity='high' to print them.

     Dense  grid:    20875 G-vectors     FFT dimensions: (  40,  40,  40)

     Estimated max dynamical RAM per process >       1.84 MB

     Estimated total dynamical RAM >      44.12 MB

     The potential is recalculated from file :
     /fastscratch/tsievers/QE_TMP_DIR/_ph0/silicon_ph_bench_nd_1_n_procs_24_2.save/charge-density

     Starting wfcs are    8 atomic wfcs

     Band Structure Calculation
     Davidson diagonalization with overlap

     ethr =  1.25E-10,  avg # of iterations = 12.9

     total cpu time spent up to now is       10.2 secs

     End of band structure calculation

     Number of k-points >= 100: set verbosity='high' to print the bands.

     highest occupied level (ev):     6.1106

     Writing config to output data dir /fastscratch/tsievers/QE_TMP_DIR/_ph0/silicon_ph_bench_nd_1_n_procs_24_2.save/

     default                                                                    

     bravais-lattice index     =            2
     lattice parameter (alat)  =      10.1899  a.u.
     unit-cell volume          =     264.5151 (a.u.)^3
     number of atoms/cell      =            2
     number of atomic types    =            1
     kinetic-energy cut-off    =      70.0000  Ry
     charge density cut-off    =     280.0000  Ry
     convergence threshold     =      1.0E-15
     beta                      =       0.7000
     number of iterations used =            4
     Exchange-correlation= PW
                           (   1   4   0   0   0   0   0)


     celldm(1)=   10.18990  celldm(2)=    0.00000  celldm(3)=    0.00000
     celldm(4)=    0.00000  celldm(5)=    0.00000  celldm(6)=    0.00000

     crystal axes: (cart. coord. in units of alat)
               a(1) = ( -0.5000  0.0000  0.5000 )  
               a(2) = (  0.0000  0.5000  0.5000 )  
               a(3) = ( -0.5000  0.5000  0.0000 )  

     reciprocal axes: (cart. coord. in units 2 pi/alat)
               b(1) = ( -1.0000 -1.0000  1.0000 )  
               b(2) = (  1.0000  1.0000  1.0000 )  
               b(3) = ( -1.0000  1.0000 -1.0000 )  


     Atoms inside the unit cell: 

     Cartesian axes

     site n.  atom      mass           positions (alat units)
        1     Si  28.0855   tau(    1) = (    0.00000    0.00000    0.00000  )
        2     Si  28.0855   tau(    2) = (   -0.25000    0.25000    0.25000  )

     Computing dynamical matrix for 
                    q = (  -0.3333333   0.3333333  -0.3333333 )
 
      6 Sym.Ops. (no q -> -q+G )


     G cutoff =  736.4420  (    871 G-vectors)     FFT grid: ( 40, 40, 40)
     number of k points=   364

     PseudoPot. # 1 for Si read from file:
     ./pseudos/Si.nc.UPF
     MD5 check sum: 9e2d726316af3d4752eea8ab0afbb951
     Pseudo is Norm-conserving + core correction, Zval =  4.0
     Generated using ONCVPSP code by D. R. Hamann
     Using radial grid of 1510 points,  6 beta functions with: 
                l(1) =   0
                l(2) =   0
                l(3) =   1
                l(4) =   1
                l(5) =   2
                l(6) =   2

     Mode symmetry, C_3v (3m)   point group:


     Atomic displacements:
     There are    4 irreducible representations

     Representation     1      1 modes -  To be done

     Representation     2      1 modes -  To be done

     Representation     3      2 modes -  To be done

     Representation     4      2 modes -  To be done



     Alpha used in Ewald sum =   2.8000
     PHONON       :   1m51.51s CPU   2m 6.39s WALL



     Representation #   1 mode #   1

     Self-consistent Calculation

      iter #   1 total cpu time :   127.9 secs   av.it.:   6.5
      thresh= 1.000E-02 alpha_mix =  0.700 |ddv_scf|^2 =  6.824E-05

      iter #   2 total cpu time :   129.8 secs   av.it.:   9.9
      thresh= 8.261E-04 alpha_mix =  0.700 |ddv_scf|^2 =  5.446E-04

      iter #   3 total cpu time :   131.6 secs   av.it.:   8.4
      thresh= 2.334E-03 alpha_mix =  0.700 |ddv_scf|^2 =  1.003E-07

      iter #   4 total cpu time :   133.5 secs   av.it.:  10.0
      thresh= 3.167E-05 alpha_mix =  0.700 |ddv_scf|^2 =  2.037E-09

      iter #   5 total cpu time :   135.5 secs   av.it.:  10.0
      thresh= 4.513E-06 alpha_mix =  0.700 |ddv_scf|^2 =  2.148E-11

      iter #   6 total cpu time :   137.6 secs   av.it.:  10.5
      thresh= 4.635E-07 alpha_mix =  0.700 |ddv_scf|^2 =  1.820E-12

      iter #   7 total cpu time :   139.6 secs   av.it.:  10.5
      thresh= 1.349E-07 alpha_mix =  0.700 |ddv_scf|^2 =  1.441E-13

      iter #   8 total cpu time :   141.7 secs   av.it.:  10.1
      thresh= 3.796E-08 alpha_mix =  0.700 |ddv_scf|^2 =  7.535E-13

      iter #   9 total cpu time :   143.6 secs   av.it.:   8.9
      thresh= 8.680E-08 alpha_mix =  0.700 |ddv_scf|^2 =  1.260E-14

      iter #  10 total cpu time :   145.4 secs   av.it.:   8.9
      thresh= 1.122E-08 alpha_mix =  0.700 |ddv_scf|^2 =  2.254E-16

     End of self-consistent calculation

     Convergence has been achieved 


     Representation #   2 mode #   2

     Self-consistent Calculation

      iter #   1 total cpu time :   146.9 secs   av.it.:   6.5
      thresh= 1.000E-02 alpha_mix =  0.700 |ddv_scf|^2 =  6.824E-05

      iter #   2 total cpu time :   148.9 secs   av.it.:   9.9
      thresh= 8.261E-04 alpha_mix =  0.700 |ddv_scf|^2 =  5.446E-04

      iter #   3 total cpu time :   150.6 secs   av.it.:   8.4
      thresh= 2.334E-03 alpha_mix =  0.700 |ddv_scf|^2 =  1.003E-07

      iter #   4 total cpu time :   152.6 secs   av.it.:  10.0
      thresh= 3.167E-05 alpha_mix =  0.700 |ddv_scf|^2 =  2.037E-09

      iter #   5 total cpu time :   154.6 secs   av.it.:  10.0
      thresh= 4.513E-06 alpha_mix =  0.700 |ddv_scf|^2 =  2.148E-11

      iter #   6 total cpu time :   156.7 secs   av.it.:  10.5
      thresh= 4.635E-07 alpha_mix =  0.700 |ddv_scf|^2 =  1.820E-12

      iter #   7 total cpu time :   158.7 secs   av.it.:  10.5
      thresh= 1.349E-07 alpha_mix =  0.700 |ddv_scf|^2 =  1.444E-13

      iter #   8 total cpu time :   162.1 secs   av.it.:  10.1
      thresh= 3.800E-08 alpha_mix =  0.700 |ddv_scf|^2 =  7.545E-13

      iter #   9 total cpu time :   164.0 secs   av.it.:   8.9
      thresh= 8.686E-08 alpha_mix =  0.700 |ddv_scf|^2 =  1.265E-14

      iter #  10 total cpu time :   165.7 secs   av.it.:   8.9
      thresh= 1.125E-08 alpha_mix =  0.700 |ddv_scf|^2 =  2.244E-16

     End of self-consistent calculation

     Convergence has been achieved 


     Representation #   3 modes #   3   4

     Self-consistent Calculation

      iter #   1 total cpu time :   168.5 secs   av.it.:   6.1
      thresh= 1.000E-02 alpha_mix =  0.700 |ddv_scf|^2 =  3.829E-08

      iter #   2 total cpu time :   173.0 secs   av.it.:  11.5
      thresh= 1.957E-05 alpha_mix =  0.700 |ddv_scf|^2 =  2.652E-09

      iter #   3 total cpu time :   177.3 secs   av.it.:  11.4
      thresh= 5.150E-06 alpha_mix =  0.700 |ddv_scf|^2 =  3.840E-11

      iter #   4 total cpu time :   181.8 secs   av.it.:  11.5
      thresh= 6.197E-07 alpha_mix =  0.700 |ddv_scf|^2 =  3.852E-13

      iter #   5 total cpu time :   186.2 secs   av.it.:  11.5
      thresh= 6.206E-08 alpha_mix =  0.700 |ddv_scf|^2 =  7.497E-15

      iter #   6 total cpu time :   191.8 secs   av.it.:  11.7
      thresh= 8.658E-09 alpha_mix =  0.700 |ddv_scf|^2 =  5.107E-17

     End of self-consistent calculation

     Convergence has been achieved 


     Representation #   4 modes #   5   6

     Self-consistent Calculation

      iter #   1 total cpu time :   194.6 secs   av.it.:   6.1
      thresh= 1.000E-02 alpha_mix =  0.700 |ddv_scf|^2 =  3.830E-08

      iter #   2 total cpu time :   199.1 secs   av.it.:  11.5
      thresh= 1.957E-05 alpha_mix =  0.700 |ddv_scf|^2 =  2.656E-09

      iter #   3 total cpu time :   203.4 secs   av.it.:  11.3
      thresh= 5.153E-06 alpha_mix =  0.700 |ddv_scf|^2 =  3.838E-11

      iter #   4 total cpu time :   208.1 secs   av.it.:  11.5
      thresh= 6.195E-07 alpha_mix =  0.700 |ddv_scf|^2 =  3.852E-13

      iter #   5 total cpu time :   212.6 secs   av.it.:  11.5
      thresh= 6.206E-08 alpha_mix =  0.700 |ddv_scf|^2 =  7.491E-15

      iter #   6 total cpu time :   217.0 secs   av.it.:  11.7
      thresh= 8.655E-09 alpha_mix =  0.700 |ddv_scf|^2 =  5.103E-17

     End of self-consistent calculation

     Convergence has been achieved 
 
     Number of q in the star =    8
     List of q in the star:
          1  -0.333333333   0.333333333  -0.333333333
          2   0.333333333   0.333333333   0.333333333
          3  -0.333333333  -0.333333333  -0.333333333
          4   0.333333333  -0.333333333   0.333333333
          5   0.333333333  -0.333333333  -0.333333333
          6   0.333333333   0.333333333  -0.333333333
          7  -0.333333333  -0.333333333   0.333333333
          8  -0.333333333   0.333333333   0.333333333

     Diagonalizing the dynamical matrix

     q = (   -0.333333333   0.333333333  -0.333333333 ) 

 **************************************************************************
     freq (    1) =       3.044151 [THz] =     101.541936 [cm-1]
     freq (    2) =       3.044151 [THz] =     101.541936 [cm-1]
     freq (    3) =       8.747652 [THz] =     291.790249 [cm-1]
     freq (    4) =      13.857188 [THz] =     462.226025 [cm-1]
     freq (    5) =      14.763310 [THz] =     492.451017 [cm-1]
     freq (    6) =      14.763310 [THz] =     492.451017 [cm-1]
 **************************************************************************

     Mode symmetry, C_3v (3m)   point group:

     freq (   1-   2) =        101.5  [cm-1]   --> E    L_3           
     freq (   3-   3) =        291.8  [cm-1]   --> A_1  L_1           
     freq (   4-   4) =        462.2  [cm-1]   --> A_1  L_1           
     freq (   5-   6) =        492.5  [cm-1]   --> E    L_3           

     Calculation of q =    0.5000000  -0.5000000   0.5000000
 
     Parallelization info
     --------------------
     sticks:   dense  smooth     PW     G-vecs:    dense   smooth      PW
     Min          41      41     14                  868      868     166
     Max          42      42     15                  871      871     169
     Sum        1003    1003    337                20875    20875    4015
 
     Using Slab Decomposition
 

     Title: 
     default                                                                    


     bravais-lattice index     =            2
     lattice parameter (alat)  =      10.1899  a.u.
     unit-cell volume          =     264.5151 (a.u.)^3
     number of atoms/cell      =            2
     number of atomic types    =            1
     number of electrons       =         8.00
     number of Kohn-Sham states=            4
     kinetic-energy cutoff     =      70.0000  Ry
     charge density cutoff     =     280.0000  Ry
     Exchange-correlation= PW
                           (   1   4   0   0   0   0   0)

     celldm(1)=  10.189905  celldm(2)=   0.000000  celldm(3)=   0.000000
     celldm(4)=   0.000000  celldm(5)=   0.000000  celldm(6)=   0.000000

     crystal axes: (cart. coord. in units of alat)
               a(1) = (  -0.500000   0.000000   0.500000 )  
               a(2) = (   0.000000   0.500000   0.500000 )  
               a(3) = (  -0.500000   0.500000   0.000000 )  

     reciprocal axes: (cart. coord. in units 2 pi/alat)
               b(1) = ( -1.000000 -1.000000  1.000000 )  
               b(2) = (  1.000000  1.000000  1.000000 )  
               b(3) = ( -1.000000  1.000000 -1.000000 )  


     PseudoPot. # 1 for Si read from file:
     ./pseudos/Si.nc.UPF
     MD5 check sum: 9e2d726316af3d4752eea8ab0afbb951
     Pseudo is Norm-conserving + core correction, Zval =  4.0
     Generated using ONCVPSP code by D. R. Hamann
     Using radial grid of 1510 points,  6 beta functions with: 
                l(1) =   0
                l(2) =   0
                l(3) =   1
                l(4) =   1
                l(5) =   2
                l(6) =   2

     atomic species   valence    mass     pseudopotential
        Si             4.00    28.08550     Si( 1.00)

     48 Sym. Ops., with inversion, found



   Cartesian axes

     site n.     atom                  positions (alat units)
         1           Si  tau(   1) = (   0.0000000   0.0000000   0.0000000  )
         2           Si  tau(   2) = (  -0.2500000   0.2500000   0.2500000  )

     number of k points=   182

     Number of k-points >= 100: set verbosity='high' to print them.

     Dense  grid:    20875 G-vectors     FFT dimensions: (  40,  40,  40)

     Estimated max dynamical RAM per process >       1.85 MB

     Estimated total dynamical RAM >      44.47 MB

     The potential is recalculated from file :
     /fastscratch/tsievers/QE_TMP_DIR/_ph0/silicon_ph_bench_nd_1_n_procs_24_2.save/charge-density

     Starting wfcs are    8 atomic wfcs

     Band Structure Calculation
     Davidson diagonalization with overlap

     ethr =  1.25E-10,  avg # of iterations = 12.9

     total cpu time spent up to now is       13.2 secs

     End of band structure calculation

     Number of k-points >= 100: set verbosity='high' to print the bands.

     highest occupied level (ev):     6.1106

     Writing config to output data dir /fastscratch/tsievers/QE_TMP_DIR/_ph0/silicon_ph_bench_nd_1_n_procs_24_2.save/

     default                                                                    

     bravais-lattice index     =            2
     lattice parameter (alat)  =      10.1899  a.u.
     unit-cell volume          =     264.5151 (a.u.)^3
     number of atoms/cell      =            2
     number of atomic types    =            1
     kinetic-energy cut-off    =      70.0000  Ry
     charge density cut-off    =     280.0000  Ry
     convergence threshold     =      1.0E-15
     beta                      =       0.7000
     number of iterations used =            4
     Exchange-correlation= PW
                           (   1   4   0   0   0   0   0)


     celldm(1)=   10.18990  celldm(2)=    0.00000  celldm(3)=    0.00000
     celldm(4)=    0.00000  celldm(5)=    0.00000  celldm(6)=    0.00000

     crystal axes: (cart. coord. in units of alat)
               a(1) = ( -0.5000  0.0000  0.5000 )  
               a(2) = (  0.0000  0.5000  0.5000 )  
               a(3) = ( -0.5000  0.5000  0.0000 )  

     reciprocal axes: (cart. coord. in units 2 pi/alat)
               b(1) = ( -1.0000 -1.0000  1.0000 )  
               b(2) = (  1.0000  1.0000  1.0000 )  
               b(3) = ( -1.0000  1.0000 -1.0000 )  


     Atoms inside the unit cell: 

     Cartesian axes

     site n.  atom      mass           positions (alat units)
        1     Si  28.0855   tau(    1) = (    0.00000    0.00000    0.00000  )
        2     Si  28.0855   tau(    2) = (   -0.25000    0.25000    0.25000  )

     Computing dynamical matrix for 
                    q = (   0.5000000  -0.5000000   0.5000000 )
 
     13 Sym.Ops. (with q -> -q+G )


     G cutoff =  736.4420  (    871 G-vectors)     FFT grid: ( 40, 40, 40)
     number of k points=   182

     PseudoPot. # 1 for Si read from file:
     ./pseudos/Si.nc.UPF
     MD5 check sum: 9e2d726316af3d4752eea8ab0afbb951
     Pseudo is Norm-conserving + core correction, Zval =  4.0
     Generated using ONCVPSP code by D. R. Hamann
     Using radial grid of 1510 points,  6 beta functions with: 
                l(1) =   0
                l(2) =   0
                l(3) =   1
                l(4) =   1
                l(5) =   2
                l(6) =   2


     Atomic displacements:
     There are    4 irreducible representations

     Representation     1      1 modes -  To be done

     Representation     2      1 modes -  To be done

     Representation     3      2 modes -  To be done

     Representation     4      2 modes -  To be done



     Alpha used in Ewald sum =   2.8000
     PHONON       :   3m17.33s CPU   3m41.47s WALL



     Representation #   1 mode #   1

     Self-consistent Calculation

      iter #   1 total cpu time :   222.2 secs   av.it.:   5.8
      thresh= 1.000E-02 alpha_mix =  0.700 |ddv_scf|^2 =  2.183E-06

      iter #   2 total cpu time :   223.3 secs   av.it.:  10.1
      thresh= 1.478E-04 alpha_mix =  0.700 |ddv_scf|^2 =  2.014E-06

      iter #   3 total cpu time :   224.3 secs   av.it.:   9.4
      thresh= 1.419E-04 alpha_mix =  0.700 |ddv_scf|^2 =  2.697E-10

      iter #   4 total cpu time :   225.3 secs   av.it.:  10.2
      thresh= 1.642E-06 alpha_mix =  0.700 |ddv_scf|^2 =  4.655E-12

      iter #   5 total cpu time :   226.3 secs   av.it.:   9.9
      thresh= 2.158E-07 alpha_mix =  0.700 |ddv_scf|^2 =  6.625E-14

      iter #   6 total cpu time :   227.4 secs   av.it.:  10.0
      thresh= 2.574E-08 alpha_mix =  0.700 |ddv_scf|^2 =  8.668E-16

     End of self-consistent calculation

     Convergence has been achieved 


     Representation #   2 mode #   2

     Self-consistent Calculation

      iter #   1 total cpu time :   228.2 secs   av.it.:   6.7
      thresh= 1.000E-02 alpha_mix =  0.700 |ddv_scf|^2 =  3.335E-05

      iter #   2 total cpu time :   229.3 secs   av.it.:  10.2
      thresh= 5.775E-04 alpha_mix =  0.700 |ddv_scf|^2 =  1.090E-04

      iter #   3 total cpu time :   230.2 secs   av.it.:   9.2
      thresh= 1.044E-03 alpha_mix =  0.700 |ddv_scf|^2 =  6.447E-09

      iter #   4 total cpu time :   231.3 secs   av.it.:   9.9
      thresh= 8.029E-06 alpha_mix =  0.700 |ddv_scf|^2 =  1.352E-10

      iter #   5 total cpu time :   232.4 secs   av.it.:  10.5
      thresh= 1.163E-06 alpha_mix =  0.700 |ddv_scf|^2 =  6.722E-12

      iter #   6 total cpu time :   233.4 secs   av.it.:  10.2
      thresh= 2.593E-07 alpha_mix =  0.700 |ddv_scf|^2 =  1.881E-13

      iter #   7 total cpu time :   234.4 secs   av.it.:   9.6
      thresh= 4.337E-08 alpha_mix =  0.700 |ddv_scf|^2 =  4.076E-17

     End of self-consistent calculation

     Convergence has been achieved 


     Representation #   3 modes #   3   4

     Self-consistent Calculation

      iter #   1 total cpu time :   235.9 secs   av.it.:   6.1
      thresh= 1.000E-02 alpha_mix =  0.700 |ddv_scf|^2 =  7.707E-08

      iter #   2 total cpu time :   238.3 secs   av.it.:  11.4
      thresh= 2.776E-05 alpha_mix =  0.700 |ddv_scf|^2 =  6.534E-09

      iter #   3 total cpu time :   240.5 secs   av.it.:  11.2
      thresh= 8.083E-06 alpha_mix =  0.700 |ddv_scf|^2 =  4.374E-11

      iter #   4 total cpu time :   242.9 secs   av.it.:  11.3
      thresh= 6.614E-07 alpha_mix =  0.700 |ddv_scf|^2 =  4.891E-14

      iter #   5 total cpu time :   245.2 secs   av.it.:  11.5
      thresh= 2.212E-08 alpha_mix =  0.700 |ddv_scf|^2 =  6.433E-16

     End of self-consistent calculation

     Convergence has been achieved 


     Representation #   4 modes #   5   6

     Self-consistent Calculation

      iter #   1 total cpu time :   246.6 secs   av.it.:   5.6
      thresh= 1.000E-02 alpha_mix =  0.700 |ddv_scf|^2 =  8.746E-09

      iter #   2 total cpu time :   248.9 secs   av.it.:  11.4
      thresh= 9.352E-06 alpha_mix =  0.700 |ddv_scf|^2 =  2.292E-10

      iter #   3 total cpu time :   251.2 secs   av.it.:  11.4
      thresh= 1.514E-06 alpha_mix =  0.700 |ddv_scf|^2 =  1.409E-11

      iter #   4 total cpu time :   253.9 secs   av.it.:  11.4
      thresh= 3.754E-07 alpha_mix =  0.700 |ddv_scf|^2 =  6.033E-14

      iter #   5 total cpu time :   256.3 secs   av.it.:  11.3
      thresh= 2.456E-08 alpha_mix =  0.700 |ddv_scf|^2 =  9.636E-16

     End of self-consistent calculation

     Convergence has been achieved 
 
     Number of q in the star =    4
     List of q in the star:
          1   0.500000000  -0.500000000   0.500000000
          2   0.500000000   0.500000000   0.500000000
          3  -0.500000000   0.500000000   0.500000000
          4   0.500000000   0.500000000  -0.500000000

     Diagonalizing the dynamical matrix

     q = (    0.500000000  -0.500000000   0.500000000 ) 

 **************************************************************************
     freq (    1) =       3.157230 [THz] =     105.313872 [cm-1]
     freq (    2) =       3.157230 [THz] =     105.313872 [cm-1]
     freq (    3) =      11.169101 [THz] =     372.561121 [cm-1]
     freq (    4) =      12.390681 [THz] =     413.308643 [cm-1]
     freq (    5) =      14.704276 [THz] =     490.481853 [cm-1]
     freq (    6) =      14.704276 [THz] =     490.481853 [cm-1]
 **************************************************************************

     Calculation of q =    0.0000000   0.3333333   0.0000000
 
     Parallelization info
     --------------------
     sticks:   dense  smooth     PW     G-vecs:    dense   smooth      PW
     Min          41      41     13                  868      868     154
     Max          42      42     14                  871      871     157
     Sum        1003    1003    313                20875    20875    3719
 
     Using Slab Decomposition
 

     Title: 
     default                                                                    


     bravais-lattice index     =            2
     lattice parameter (alat)  =      10.1899  a.u.
     unit-cell volume          =     264.5151 (a.u.)^3
     number of atoms/cell      =            2
     number of atomic types    =            1
     number of electrons       =         8.00
     number of Kohn-Sham states=            4
     kinetic-energy cutoff     =      70.0000  Ry
     charge density cutoff     =     280.0000  Ry
     Exchange-correlation= PW
                           (   1   4   0   0   0   0   0)

     celldm(1)=  10.189905  celldm(2)=   0.000000  celldm(3)=   0.000000
     celldm(4)=   0.000000  celldm(5)=   0.000000  celldm(6)=   0.000000

     crystal axes: (cart. coord. in units of alat)
               a(1) = (  -0.500000   0.000000   0.500000 )  
               a(2) = (   0.000000   0.500000   0.500000 )  
               a(3) = (  -0.500000   0.500000   0.000000 )  

     reciprocal axes: (cart. coord. in units 2 pi/alat)
               b(1) = ( -1.000000 -1.000000  1.000000 )  
               b(2) = (  1.000000  1.000000  1.000000 )  
               b(3) = ( -1.000000  1.000000 -1.000000 )  


     PseudoPot. # 1 for Si read from file:
     ./pseudos/Si.nc.UPF
     MD5 check sum: 9e2d726316af3d4752eea8ab0afbb951
     Pseudo is Norm-conserving + core correction, Zval =  4.0
     Generated using ONCVPSP code by D. R. Hamann
     Using radial grid of 1510 points,  6 beta functions with: 
                l(1) =   0
                l(2) =   0
                l(3) =   1
                l(4) =   1
                l(5) =   2
                l(6) =   2

     atomic species   valence    mass     pseudopotential
        Si             4.00    28.08550     Si( 1.00)

     48 Sym. Ops., with inversion, found



   Cartesian axes

     site n.     atom                  positions (alat units)
         1           Si  tau(   1) = (   0.0000000   0.0000000   0.0000000  )
         2           Si  tau(   2) = (  -0.2500000   0.2500000   0.2500000  )

     number of k points=   252

     Number of k-points >= 100: set verbosity='high' to print them.

     Dense  grid:    20875 G-vectors     FFT dimensions: (  40,  40,  40)

     Estimated max dynamical RAM per process >       1.83 MB

     Estimated total dynamical RAM >      43.83 MB

     The potential is recalculated from file :
     /fastscratch/tsievers/QE_TMP_DIR/_ph0/silicon_ph_bench_nd_1_n_procs_24_2.save/charge-density

     Starting wfcs are    8 atomic wfcs

     Band Structure Calculation
     Davidson diagonalization with overlap

     ethr =  1.25E-10,  avg # of iterations = 12.8

     total cpu time spent up to now is       16.8 secs

     End of band structure calculation

     Number of k-points >= 100: set verbosity='high' to print the bands.

     highest occupied level (ev):     6.1106

     Writing config to output data dir /fastscratch/tsievers/QE_TMP_DIR/_ph0/silicon_ph_bench_nd_1_n_procs_24_2.save/

     default                                                                    

     bravais-lattice index     =            2
     lattice parameter (alat)  =      10.1899  a.u.
     unit-cell volume          =     264.5151 (a.u.)^3
     number of atoms/cell      =            2
     number of atomic types    =            1
     kinetic-energy cut-off    =      70.0000  Ry
     charge density cut-off    =     280.0000  Ry
     convergence threshold     =      1.0E-15
     beta                      =       0.7000
     number of iterations used =            4
     Exchange-correlation= PW
                           (   1   4   0   0   0   0   0)


     celldm(1)=   10.18990  celldm(2)=    0.00000  celldm(3)=    0.00000
     celldm(4)=    0.00000  celldm(5)=    0.00000  celldm(6)=    0.00000

     crystal axes: (cart. coord. in units of alat)
               a(1) = ( -0.5000  0.0000  0.5000 )  
               a(2) = (  0.0000  0.5000  0.5000 )  
               a(3) = ( -0.5000  0.5000  0.0000 )  

     reciprocal axes: (cart. coord. in units 2 pi/alat)
               b(1) = ( -1.0000 -1.0000  1.0000 )  
               b(2) = (  1.0000  1.0000  1.0000 )  
               b(3) = ( -1.0000  1.0000 -1.0000 )  


     Atoms inside the unit cell: 

     Cartesian axes

     site n.  atom      mass           positions (alat units)
        1     Si  28.0855   tau(    1) = (    0.00000    0.00000    0.00000  )
        2     Si  28.0855   tau(    2) = (   -0.25000    0.25000    0.25000  )

     Computing dynamical matrix for 
                    q = (   0.0000000   0.3333333   0.0000000 )
 
      8 Sym.Ops. (no q -> -q+G )


     G cutoff =  736.4420  (    871 G-vectors)     FFT grid: ( 40, 40, 40)
     number of k points=   252

     PseudoPot. # 1 for Si read from file:
     ./pseudos/Si.nc.UPF
     MD5 check sum: 9e2d726316af3d4752eea8ab0afbb951
     Pseudo is Norm-conserving + core correction, Zval =  4.0
     Generated using ONCVPSP code by D. R. Hamann
     Using radial grid of 1510 points,  6 beta functions with: 
                l(1) =   0
                l(2) =   0
                l(3) =   1
                l(4) =   1
                l(5) =   2
                l(6) =   2

     Mode symmetry, C_4v (4mm)  point group:


     Atomic displacements:
     There are    4 irreducible representations

     Representation     1      1 modes -  To be done

     Representation     2      1 modes -  To be done

     Representation     3      2 modes -  To be done

     Representation     4      2 modes -  To be done



     Alpha used in Ewald sum =   2.8000
     PHONON       :   3m52.46s CPU   4m20.79s WALL



     Representation #   1 mode #   1

     Self-consistent Calculation

      iter #   1 total cpu time :   261.9 secs   av.it.:   6.8
      thresh= 1.000E-02 alpha_mix =  0.700 |ddv_scf|^2 =  1.448E-03

      iter #   2 total cpu time :   263.2 secs   av.it.:   9.2
      thresh= 3.805E-03 alpha_mix =  0.700 |ddv_scf|^2 =  4.414E-02

      iter #   3 total cpu time :   264.4 secs   av.it.:   8.1
      thresh= 1.000E-02 alpha_mix =  0.700 |ddv_scf|^2 =  4.059E-08

      iter #   4 total cpu time :   265.7 secs   av.it.:   9.1
      thresh= 2.015E-05 alpha_mix =  0.700 |ddv_scf|^2 =  1.956E-09

      iter #   5 total cpu time :   266.9 secs   av.it.:   8.7
      thresh= 4.423E-06 alpha_mix =  0.700 |ddv_scf|^2 =  6.308E-10

      iter #   6 total cpu time :   268.2 secs   av.it.:   8.3
      thresh= 2.511E-06 alpha_mix =  0.700 |ddv_scf|^2 =  8.823E-13

      iter #   7 total cpu time :   269.4 secs   av.it.:   8.6
      thresh= 9.393E-08 alpha_mix =  0.700 |ddv_scf|^2 =  1.857E-14

      iter #   8 total cpu time :   270.6 secs   av.it.:   8.6
      thresh= 1.363E-08 alpha_mix =  0.700 |ddv_scf|^2 =  2.515E-16

     End of self-consistent calculation

     Convergence has been achieved 


     Representation #   2 mode #   2

     Self-consistent Calculation

      iter #   1 total cpu time :   271.6 secs   av.it.:   5.9
      thresh= 1.000E-02 alpha_mix =  0.700 |ddv_scf|^2 =  2.210E-07

      iter #   2 total cpu time :   273.1 secs   av.it.:  10.6
      thresh= 4.701E-05 alpha_mix =  0.700 |ddv_scf|^2 =  3.573E-08

      iter #   3 total cpu time :   274.5 secs   av.it.:  10.3
      thresh= 1.890E-05 alpha_mix =  0.700 |ddv_scf|^2 =  4.519E-10

      iter #   4 total cpu time :   276.0 secs   av.it.:  10.4
      thresh= 2.126E-06 alpha_mix =  0.700 |ddv_scf|^2 =  1.877E-11

      iter #   5 total cpu time :   277.4 secs   av.it.:  10.5
      thresh= 4.332E-07 alpha_mix =  0.700 |ddv_scf|^2 =  4.278E-14

      iter #   6 total cpu time :   278.8 secs   av.it.:  10.6
      thresh= 2.068E-08 alpha_mix =  0.700 |ddv_scf|^2 =  8.539E-16

     End of self-consistent calculation

     Convergence has been achieved 


     Representation #   3 modes #   3   4

     Self-consistent Calculation

      iter #   1 total cpu time :   280.8 secs   av.it.:   6.0
      thresh= 1.000E-02 alpha_mix =  0.700 |ddv_scf|^2 =  3.999E-08

      iter #   2 total cpu time :   283.9 secs   av.it.:  11.5
      thresh= 2.000E-05 alpha_mix =  0.700 |ddv_scf|^2 =  3.646E-09

      iter #   3 total cpu time :   286.9 secs   av.it.:  11.3
      thresh= 6.038E-06 alpha_mix =  0.700 |ddv_scf|^2 =  4.249E-11

      iter #   4 total cpu time :   290.1 secs   av.it.:  11.4
      thresh= 6.518E-07 alpha_mix =  0.700 |ddv_scf|^2 =  4.779E-13

      iter #   5 total cpu time :   294.6 secs   av.it.:  11.4
      thresh= 6.913E-08 alpha_mix =  0.700 |ddv_scf|^2 =  7.932E-15

      iter #   6 total cpu time :   297.7 secs   av.it.:  11.8
      thresh= 8.906E-09 alpha_mix =  0.700 |ddv_scf|^2 =  3.230E-17

     End of self-consistent calculation

     Convergence has been achieved 


     Representation #   4 modes #   5   6

     Self-consistent Calculation

      iter #   1 total cpu time :   299.7 secs   av.it.:   6.0
      thresh= 1.000E-02 alpha_mix =  0.700 |ddv_scf|^2 =  5.273E-08

      iter #   2 total cpu time :   302.8 secs   av.it.:  11.4
      thresh= 2.296E-05 alpha_mix =  0.700 |ddv_scf|^2 =  4.972E-09

      iter #   3 total cpu time :   305.8 secs   av.it.:  11.1
      thresh= 7.051E-06 alpha_mix =  0.700 |ddv_scf|^2 =  4.498E-11

      iter #   4 total cpu time :   308.9 secs   av.it.:  11.4
      thresh= 6.707E-07 alpha_mix =  0.700 |ddv_scf|^2 =  3.058E-13

      iter #   5 total cpu time :   311.9 secs   av.it.:  11.3
      thresh= 5.530E-08 alpha_mix =  0.700 |ddv_scf|^2 =  7.263E-15

      iter #   6 total cpu time :   315.0 secs   av.it.:  11.7
      thresh= 8.522E-09 alpha_mix =  0.700 |ddv_scf|^2 =  3.074E-17

     End of self-consistent calculation

     Convergence has been achieved 
 
     Number of q in the star =    6
     List of q in the star:
          1   0.000000000   0.333333333   0.000000000
          2   0.333333333   0.000000000   0.000000000
          3   0.000000000   0.000000000   0.333333333
          4   0.000000000  -0.333333333   0.000000000
          5  -0.333333333   0.000000000   0.000000000
          6   0.000000000   0.000000000  -0.333333333

     Diagonalizing the dynamical matrix

     q = (    0.000000000   0.333333333   0.000000000 ) 

 **************************************************************************
     freq (    1) =       2.948500 [THz] =      98.351379 [cm-1]
     freq (    2) =       2.948500 [THz] =      98.351379 [cm-1]
     freq (    3) =       4.953349 [THz] =     165.225933 [cm-1]
     freq (    4) =      14.670288 [THz] =     489.348132 [cm-1]
     freq (    5) =      14.670288 [THz] =     489.348132 [cm-1]
     freq (    6) =      15.142900 [THz] =     505.112787 [cm-1]
 **************************************************************************

     Mode symmetry, C_4v (4mm)  point group:

     freq (   1-   2) =         98.4  [cm-1]   --> E    G_5 D_5       
     freq (   3-   3) =        165.2  [cm-1]   --> A_1  G_1 D_1       
     freq (   4-   5) =        489.3  [cm-1]   --> E    G_5 D_5       
     freq (   6-   6) =        505.1  [cm-1]   --> B_2  G_4 D_2'      

     Calculation of q =   -0.1666667   0.5000000  -0.1666667
 
     Parallelization info
     --------------------
     sticks:   dense  smooth     PW     G-vecs:    dense   smooth      PW
     Min          41      41     13                  868      868     159
     Max          42      42     14                  871      871     164
     Sum        1003    1003    313                20875    20875    3839
 
     Using Slab Decomposition
 

     Title: 
     default                                                                    


     bravais-lattice index     =            2
     lattice parameter (alat)  =      10.1899  a.u.
     unit-cell volume          =     264.5151 (a.u.)^3
     number of atoms/cell      =            2
     number of atomic types    =            1
     number of electrons       =         8.00
     number of Kohn-Sham states=            4
     kinetic-energy cutoff     =      70.0000  Ry
     charge density cutoff     =     280.0000  Ry
     Exchange-correlation= PW
                           (   1   4   0   0   0   0   0)

     celldm(1)=  10.189905  celldm(2)=   0.000000  celldm(3)=   0.000000
     celldm(4)=   0.000000  celldm(5)=   0.000000  celldm(6)=   0.000000

     crystal axes: (cart. coord. in units of alat)
               a(1) = (  -0.500000   0.000000   0.500000 )  
               a(2) = (   0.000000   0.500000   0.500000 )  
               a(3) = (  -0.500000   0.500000   0.000000 )  

     reciprocal axes: (cart. coord. in units 2 pi/alat)
               b(1) = ( -1.000000 -1.000000  1.000000 )  
               b(2) = (  1.000000  1.000000  1.000000 )  
               b(3) = ( -1.000000  1.000000 -1.000000 )  


     PseudoPot. # 1 for Si read from file:
     ./pseudos/Si.nc.UPF
     MD5 check sum: 9e2d726316af3d4752eea8ab0afbb951
     Pseudo is Norm-conserving + core correction, Zval =  4.0
     Generated using ONCVPSP code by D. R. Hamann
     Using radial grid of 1510 points,  6 beta functions with: 
                l(1) =   0
                l(2) =   0
                l(3) =   1
                l(4) =   1
                l(5) =   2
                l(6) =   2

     atomic species   valence    mass     pseudopotential
        Si             4.00    28.08550     Si( 1.00)

     48 Sym. Ops., with inversion, found



   Cartesian axes

     site n.     atom                  positions (alat units)
         1           Si  tau(   1) = (   0.0000000   0.0000000   0.0000000  )
         2           Si  tau(   2) = (  -0.2500000   0.2500000   0.2500000  )

     number of k points=   936

     Number of k-points >= 100: set verbosity='high' to print them.

     Dense  grid:    20875 G-vectors     FFT dimensions: (  40,  40,  40)

     Estimated max dynamical RAM per process >       1.84 MB

     Estimated total dynamical RAM >      44.10 MB

     The potential is recalculated from file :
     /fastscratch/tsievers/QE_TMP_DIR/_ph0/silicon_ph_bench_nd_1_n_procs_24_2.save/charge-density

     Starting wfcs are    8 atomic wfcs

     Band Structure Calculation
     Davidson diagonalization with overlap

     ethr =  1.25E-10,  avg # of iterations = 12.8

     total cpu time spent up to now is       29.8 secs

     End of band structure calculation

     Number of k-points >= 100: set verbosity='high' to print the bands.

     highest occupied level (ev):     6.1106

     Writing config to output data dir /fastscratch/tsievers/QE_TMP_DIR/_ph0/silicon_ph_bench_nd_1_n_procs_24_2.save/

     default                                                                    

     bravais-lattice index     =            2
     lattice parameter (alat)  =      10.1899  a.u.
     unit-cell volume          =     264.5151 (a.u.)^3
     number of atoms/cell      =            2
     number of atomic types    =            1
     kinetic-energy cut-off    =      70.0000  Ry
     charge density cut-off    =     280.0000  Ry
     convergence threshold     =      1.0E-15
     beta                      =       0.7000
     number of iterations used =            4
     Exchange-correlation= PW
                           (   1   4   0   0   0   0   0)


     celldm(1)=   10.18990  celldm(2)=    0.00000  celldm(3)=    0.00000
     celldm(4)=    0.00000  celldm(5)=    0.00000  celldm(6)=    0.00000

     crystal axes: (cart. coord. in units of alat)
               a(1) = ( -0.5000  0.0000  0.5000 )  
               a(2) = (  0.0000  0.5000  0.5000 )  
               a(3) = ( -0.5000  0.5000  0.0000 )  

     reciprocal axes: (cart. coord. in units 2 pi/alat)
               b(1) = ( -1.0000 -1.0000  1.0000 )  
               b(2) = (  1.0000  1.0000  1.0000 )  
               b(3) = ( -1.0000  1.0000 -1.0000 )  


     Atoms inside the unit cell: 

     Cartesian axes

     site n.  atom      mass           positions (alat units)
        1     Si  28.0855   tau(    1) = (    0.00000    0.00000    0.00000  )
        2     Si  28.0855   tau(    2) = (   -0.25000    0.25000    0.25000  )

     Computing dynamical matrix for 
[...]
      thresh= 1.000E-02 alpha_mix =  0.700 |ddv_scf|^2 =  3.738E-06

      iter #   2 total cpu time :  2238.2 secs   av.it.:  10.9
      thresh= 1.933E-04 alpha_mix =  0.700 |ddv_scf|^2 =  4.740E-06

      iter #   3 total cpu time :  2242.8 secs   av.it.:  10.1
      thresh= 2.177E-04 alpha_mix =  0.700 |ddv_scf|^2 =  5.425E-08

      iter #   4 total cpu time :  2247.8 secs   av.it.:  10.3
      thresh= 2.329E-05 alpha_mix =  0.700 |ddv_scf|^2 =  2.728E-10

      iter #   5 total cpu time :  2252.8 secs   av.it.:  10.7
      thresh= 1.652E-06 alpha_mix =  0.700 |ddv_scf|^2 =  6.919E-12

      iter #   6 total cpu time :  2258.5 secs   av.it.:  10.8
      thresh= 2.630E-07 alpha_mix =  0.700 |ddv_scf|^2 =  4.068E-14

      iter #   7 total cpu time :  2263.6 secs   av.it.:  10.6
      thresh= 2.017E-08 alpha_mix =  0.700 |ddv_scf|^2 =  4.622E-15

      iter #   8 total cpu time :  2268.6 secs   av.it.:  10.7
      thresh= 6.799E-09 alpha_mix =  0.700 |ddv_scf|^2 =  3.961E-16

     End of self-consistent calculation

     Convergence has been achieved 


     Representation #   6 mode #   6

     Self-consistent Calculation

      iter #   1 total cpu time :  2272.1 secs   av.it.:   6.3
      thresh= 1.000E-02 alpha_mix =  0.700 |ddv_scf|^2 =  1.756E-06

      iter #   2 total cpu time :  2277.1 secs   av.it.:  10.9
      thresh= 1.325E-04 alpha_mix =  0.700 |ddv_scf|^2 =  1.926E-06

      iter #   3 total cpu time :  2282.0 secs   av.it.:  10.0
      thresh= 1.388E-04 alpha_mix =  0.700 |ddv_scf|^2 =  4.716E-08

      iter #   4 total cpu time :  2287.6 secs   av.it.:  10.2
      thresh= 2.172E-05 alpha_mix =  0.700 |ddv_scf|^2 =  1.539E-10

      iter #   5 total cpu time :  2292.7 secs   av.it.:  10.6
      thresh= 1.241E-06 alpha_mix =  0.700 |ddv_scf|^2 =  2.899E-12

      iter #   6 total cpu time :  2297.6 secs   av.it.:  10.7
      thresh= 1.703E-07 alpha_mix =  0.700 |ddv_scf|^2 =  1.356E-14

      iter #   7 total cpu time :  2302.4 secs   av.it.:  10.7
      thresh= 1.164E-08 alpha_mix =  0.700 |ddv_scf|^2 =  7.738E-16

     End of self-consistent calculation

     Convergence has been achieved 
 
     Number of q in the star =   24
     List of q in the star:
          1   0.500000000  -0.166666667   0.833333333
          2   0.833333333   0.166666667   0.500000000
          3   0.500000000   0.166666667   0.833333333
          4  -0.833333333  -0.166666667   0.500000000
          5  -0.833333333  -0.166666667  -0.500000000
          6  -0.500000000  -0.166666667  -0.833333333
          7   0.833333333  -0.166666667   0.500000000
          8  -0.500000000  -0.166666667   0.833333333
          9  -0.833333333   0.166666667   0.500000000
         10   0.833333333   0.166666667  -0.500000000
         11   0.833333333  -0.166666667  -0.500000000
         12   0.500000000   0.166666667  -0.833333333
         13  -0.500000000   0.166666667   0.833333333
         14  -0.500000000   0.166666667  -0.833333333
         15  -0.833333333   0.166666667  -0.500000000
         16   0.833333333  -0.500000000   0.166666667
         17   0.833333333   0.500000000  -0.166666667
         18  -0.833333333  -0.500000000  -0.166666667
         19  -0.833333333   0.500000000   0.166666667
         20   0.166666667  -0.500000000   0.833333333
         21  -0.166666667   0.500000000   0.833333333
         22   0.166666667   0.500000000  -0.833333333
         23  -0.166666667  -0.500000000  -0.833333333
         24  -0.500000000   0.833333333   0.166666667

     Diagonalizing the dynamical matrix

     q = (    0.500000000  -0.166666667   0.833333333 ) 

 **************************************************************************
     freq (    1) =       5.052044 [THz] =     168.518045 [cm-1]
     freq (    2) =       6.066604 [THz] =     202.360133 [cm-1]
     freq (    3) =       9.812916 [THz] =     327.323660 [cm-1]
     freq (    4) =      11.453504 [THz] =     382.047775 [cm-1]
     freq (    5) =      14.041997 [THz] =     468.390595 [cm-1]
     freq (    6) =      14.270600 [THz] =     476.015992 [cm-1]
 **************************************************************************

     Calculation of q =   -0.3333333  -1.0000000   0.0000000
 
     Parallelization info
     --------------------
     sticks:   dense  smooth     PW     G-vecs:    dense   smooth      PW
     Min          41      41     14                  868      868     177
     Max          42      42     15                  871      871     180
     Sum        1003    1003    349                20875    20875    4279
 
     Using Slab Decomposition
 

     Title: 
     default                                                                    


     bravais-lattice index     =            2
     lattice parameter (alat)  =      10.1899  a.u.
     unit-cell volume          =     264.5151 (a.u.)^3
     number of atoms/cell      =            2
     number of atomic types    =            1
     number of electrons       =         8.00
     number of Kohn-Sham states=            4
     kinetic-energy cutoff     =      70.0000  Ry
     charge density cutoff     =     280.0000  Ry
     Exchange-correlation= PW
                           (   1   4   0   0   0   0   0)

     celldm(1)=  10.189905  celldm(2)=   0.000000  celldm(3)=   0.000000
     celldm(4)=   0.000000  celldm(5)=   0.000000  celldm(6)=   0.000000

     crystal axes: (cart. coord. in units of alat)
               a(1) = (  -0.500000   0.000000   0.500000 )  
               a(2) = (   0.000000   0.500000   0.500000 )  
               a(3) = (  -0.500000   0.500000   0.000000 )  

     reciprocal axes: (cart. coord. in units 2 pi/alat)
               b(1) = ( -1.000000 -1.000000  1.000000 )  
               b(2) = (  1.000000  1.000000  1.000000 )  
               b(3) = ( -1.000000  1.000000 -1.000000 )  


     PseudoPot. # 1 for Si read from file:
     ./pseudos/Si.nc.UPF
     MD5 check sum: 9e2d726316af3d4752eea8ab0afbb951
     Pseudo is Norm-conserving + core correction, Zval =  4.0
     Generated using ONCVPSP code by D. R. Hamann
     Using radial grid of 1510 points,  6 beta functions with: 
                l(1) =   0
                l(2) =   0
                l(3) =   1
                l(4) =   1
                l(5) =   2
                l(6) =   2

     atomic species   valence    mass     pseudopotential
        Si             4.00    28.08550     Si( 1.00)

     48 Sym. Ops., with inversion, found



   Cartesian axes

     site n.     atom                  positions (alat units)
         1           Si  tau(   1) = (   0.0000000   0.0000000   0.0000000  )
         2           Si  tau(   2) = (  -0.2500000   0.2500000   0.2500000  )

     number of k points=   432

     Number of k-points >= 100: set verbosity='high' to print them.

     Dense  grid:    20875 G-vectors     FFT dimensions: (  40,  40,  40)

     Estimated max dynamical RAM per process >       1.86 MB

     Estimated total dynamical RAM >      44.70 MB

     The potential is recalculated from file :
     /fastscratch/tsievers/QE_TMP_DIR/_ph0/silicon_ph_bench_nd_1_n_procs_24_2.save/charge-density

     Starting wfcs are    8 atomic wfcs

     Band Structure Calculation
     Davidson diagonalization with overlap

     ethr =  1.25E-10,  avg # of iterations = 12.8

     total cpu time spent up to now is      122.9 secs

     End of band structure calculation

     Number of k-points >= 100: set verbosity='high' to print the bands.

     highest occupied level (ev):     6.1106

     Writing config to output data dir /fastscratch/tsievers/QE_TMP_DIR/_ph0/silicon_ph_bench_nd_1_n_procs_24_2.save/

     default                                                                    

     bravais-lattice index     =            2
     lattice parameter (alat)  =      10.1899  a.u.
     unit-cell volume          =     264.5151 (a.u.)^3
     number of atoms/cell      =            2
     number of atomic types    =            1
     kinetic-energy cut-off    =      70.0000  Ry
     charge density cut-off    =     280.0000  Ry
     convergence threshold     =      1.0E-15
     beta                      =       0.7000
     number of iterations used =            4
     Exchange-correlation= PW
                           (   1   4   0   0   0   0   0)


     celldm(1)=   10.18990  celldm(2)=    0.00000  celldm(3)=    0.00000
     celldm(4)=    0.00000  celldm(5)=    0.00000  celldm(6)=    0.00000

     crystal axes: (cart. coord. in units of alat)
               a(1) = ( -0.5000  0.0000  0.5000 )  
               a(2) = (  0.0000  0.5000  0.5000 )  
               a(3) = ( -0.5000  0.5000  0.0000 )  

     reciprocal axes: (cart. coord. in units 2 pi/alat)
               b(1) = ( -1.0000 -1.0000  1.0000 )  
               b(2) = (  1.0000  1.0000  1.0000 )  
               b(3) = ( -1.0000  1.0000 -1.0000 )  


     Atoms inside the unit cell: 

     Cartesian axes

     site n.  atom      mass           positions (alat units)
        1     Si  28.0855   tau(    1) = (    0.00000    0.00000    0.00000  )
        2     Si  28.0855   tau(    2) = (   -0.25000    0.25000    0.25000  )

     Computing dynamical matrix for 
                    q = (  -0.3333333  -1.0000000   0.0000000 )
 
      4 Sym.Ops. (no q -> -q+G )


     G cutoff =  736.4420  (    871 G-vectors)     FFT grid: ( 40, 40, 40)
     number of k points=   432

     PseudoPot. # 1 for Si read from file:
     ./pseudos/Si.nc.UPF
     MD5 check sum: 9e2d726316af3d4752eea8ab0afbb951
     Pseudo is Norm-conserving + core correction, Zval =  4.0
     Generated using ONCVPSP code by D. R. Hamann
     Using radial grid of 1510 points,  6 beta functions with: 
                l(1) =   0
                l(2) =   0
                l(3) =   1
                l(4) =   1
                l(5) =   2
                l(6) =   2


     Atomic displacements:
     There are    3 irreducible representations

     Representation     1      2 modes -  To be done

     Representation     2      2 modes -  To be done

     Representation     3      2 modes -  To be done



     Alpha used in Ewald sum =   2.8000
     PHONON       :  35m19.53s CPU  38m29.84s WALL



     Representation #   1 modes #   1   2

     Self-consistent Calculation

      iter #   1 total cpu time :  2313.4 secs   av.it.:   6.2
      thresh= 1.000E-02 alpha_mix =  0.700 |ddv_scf|^2 =  3.502E-07

      iter #   2 total cpu time :  2318.6 secs   av.it.:  11.6
      thresh= 5.917E-05 alpha_mix =  0.700 |ddv_scf|^2 =  3.904E-07

      iter #   3 total cpu time :  2323.6 secs   av.it.:  11.0
      thresh= 6.248E-05 alpha_mix =  0.700 |ddv_scf|^2 =  3.180E-09

      iter #   4 total cpu time :  2328.7 secs   av.it.:  11.1
      thresh= 5.639E-06 alpha_mix =  0.700 |ddv_scf|^2 =  6.452E-11

      iter #   5 total cpu time :  2333.8 secs   av.it.:  11.3
      thresh= 8.032E-07 alpha_mix =  0.700 |ddv_scf|^2 =  7.454E-13

      iter #   6 total cpu time :  2339.5 secs   av.it.:  11.5
      thresh= 8.634E-08 alpha_mix =  0.700 |ddv_scf|^2 =  1.492E-14

      iter #   7 total cpu time :  2345.8 secs   av.it.:  11.4
      thresh= 1.221E-08 alpha_mix =  0.700 |ddv_scf|^2 =  7.752E-16

     End of self-consistent calculation

     Convergence has been achieved 


     Representation #   2 modes #   3   4

     Self-consistent Calculation

      iter #   1 total cpu time :  2349.4 secs   av.it.:   6.4
      thresh= 1.000E-02 alpha_mix =  0.700 |ddv_scf|^2 =  6.349E-07

      iter #   2 total cpu time :  2354.7 secs   av.it.:  11.6
      thresh= 7.968E-05 alpha_mix =  0.700 |ddv_scf|^2 =  7.119E-07

      iter #   3 total cpu time :  2359.8 secs   av.it.:  11.0
      thresh= 8.437E-05 alpha_mix =  0.700 |ddv_scf|^2 =  6.153E-09

      iter #   4 total cpu time :  2365.0 secs   av.it.:  11.1
      thresh= 7.844E-06 alpha_mix =  0.700 |ddv_scf|^2 =  6.417E-11

      iter #   5 total cpu time :  2370.3 secs   av.it.:  11.3
      thresh= 8.010E-07 alpha_mix =  0.700 |ddv_scf|^2 =  1.463E-12

      iter #   6 total cpu time :  2376.3 secs   av.it.:  11.5
      thresh= 1.209E-07 alpha_mix =  0.700 |ddv_scf|^2 =  1.161E-14

      iter #   7 total cpu time :  2381.8 secs   av.it.:  11.4
      thresh= 1.077E-08 alpha_mix =  0.700 |ddv_scf|^2 =  7.325E-16

     End of self-consistent calculation

     Convergence has been achieved 


     Representation #   3 modes #   5   6

     Self-consistent Calculation

      iter #   1 total cpu time :  2385.4 secs   av.it.:   6.5
      thresh= 1.000E-02 alpha_mix =  0.700 |ddv_scf|^2 =  8.409E-07

      iter #   2 total cpu time :  2390.6 secs   av.it.:  11.5
      thresh= 9.170E-05 alpha_mix =  0.700 |ddv_scf|^2 =  9.229E-07

      iter #   3 total cpu time :  2395.6 secs   av.it.:  10.9
      thresh= 9.607E-05 alpha_mix =  0.700 |ddv_scf|^2 =  7.447E-09

      iter #   4 total cpu time :  2400.8 secs   av.it.:  10.9
      thresh= 8.630E-06 alpha_mix =  0.700 |ddv_scf|^2 =  5.057E-11

      iter #   5 total cpu time :  2406.6 secs   av.it.:  11.3
      thresh= 7.111E-07 alpha_mix =  0.700 |ddv_scf|^2 =  4.801E-13

      iter #   6 total cpu time :  2412.2 secs   av.it.:  11.3
      thresh= 6.929E-08 alpha_mix =  0.700 |ddv_scf|^2 =  8.433E-15

      iter #   7 total cpu time :  2417.3 secs   av.it.:  11.3
      thresh= 9.183E-09 alpha_mix =  0.700 |ddv_scf|^2 =  5.065E-16

     End of self-consistent calculation

     Convergence has been achieved 
 
     Number of q in the star =   12
     List of q in the star:
          1  -0.333333333  -1.000000000   0.000000000
          2   0.000000000  -1.000000000  -0.333333333
          3   0.000000000  -1.000000000   0.333333333
          4   0.333333333  -1.000000000   0.000000000
          5  -1.000000000   0.000000000  -0.333333333
          6   1.000000000   0.000000000   0.333333333
          7   0.000000000   0.333333333   1.000000000
          8   0.000000000  -0.333333333  -1.000000000
          9  -1.000000000  -0.333333333   0.000000000
         10   1.000000000   0.333333333   0.000000000
         11  -0.333333333   0.000000000   1.000000000
         12   0.333333333   0.000000000   1.000000000

     Diagonalizing the dynamical matrix

     q = (   -0.333333333  -1.000000000   0.000000000 ) 

 **************************************************************************
     freq (    1) =       5.494080 [THz] =     183.262769 [cm-1]
     freq (    2) =       5.494080 [THz] =     183.262769 [cm-1]
     freq (    3) =      10.966366 [THz] =     365.798586 [cm-1]
     freq (    4) =      10.966366 [THz] =     365.798586 [cm-1]
     freq (    5) =      14.002450 [THz] =     467.071448 [cm-1]
     freq (    6) =      14.002450 [THz] =     467.071448 [cm-1]
 **************************************************************************
 
     init_run     :      0.23s CPU      0.32s WALL (      15 calls)
     electrons    :    106.35s CPU    111.72s WALL (      15 calls)

     Called by init_run:
     wfcinit      :      0.00s CPU      0.02s WALL (      15 calls)
     potinit      :      0.02s CPU      0.03s WALL (      15 calls)
     hinit0       :      0.11s CPU      0.11s WALL (      15 calls)

     Called by electrons:
     c_bands      :    106.35s CPU    111.71s WALL (      15 calls)
     v_of_rho     :      0.01s CPU      0.01s WALL (      16 calls)

     Called by c_bands:
     init_us_2    :     10.37s CPU     10.91s WALL (  251369 calls)
     init_us_2:cp :      9.76s CPU     10.35s WALL (  251369 calls)
     cegterg      :     90.25s CPU     94.47s WALL (    8380 calls)

     Called by *egterg:
     cdiaghg      :      7.30s CPU      7.71s WALL (  115750 calls)
     h_psi        :   1575.95s CPU   1652.84s WALL ( 2446949 calls)
     g_psi        :      0.41s CPU      0.43s WALL (  107370 calls)

     Called by h_psi:
     h_psi:calbec :    105.03s CPU    110.06s WALL ( 2446949 calls)
     vloc_psi     :   1403.49s CPU   1472.11s WALL ( 2446949 calls)
     add_vuspsi   :     47.01s CPU     50.00s WALL ( 2446949 calls)

     General routines
     calbec       :    182.34s CPU    192.67s WALL ( 4913264 calls)
     fft          :      0.67s CPU      0.70s WALL (    3953 calls)
     ffts         :      2.76s CPU      2.88s WALL (   25932 calls)
     fftw         :   1616.26s CPU   1694.34s WALL (20897090 calls)
     davcio       :      9.37s CPU     34.99s WALL ( 1061908 calls)
 
     Parallel routines
 
     PHONON       :  36m58.09s CPU  40m18.08s WALL

     INITIALIZATION: 
     phq_setup    :      0.02s CPU      0.67s WALL (      16 calls)
     phq_init     :      4.18s CPU      5.11s WALL (      16 calls)
 
     phq_init     :      4.18s CPU      5.11s WALL (      16 calls)
     set_drhoc    :      0.40s CPU      0.40s WALL (      48 calls)
     init_vloc    :      0.03s CPU      0.03s WALL (      16 calls)
     init_us_1    :      0.03s CPU      0.04s WALL (      16 calls)
     init_us_2    :     10.37s CPU     10.91s WALL (  251369 calls)
 
     DYNAMICAL MATRIX:
     dynmat0      :      2.92s CPU      3.76s WALL (      16 calls)
     phqscf       :   2098.58s CPU   2266.74s WALL (      16 calls)
     dynmatrix    :      0.07s CPU      0.15s WALL (      16 calls)
 
     phqscf       :   2098.58s CPU   2266.74s WALL (      16 calls)
     solve_linter :   2092.40s CPU   2258.01s WALL (      76 calls)
     drhodv       :      6.11s CPU      6.50s WALL (      76 calls)
 
     dynmat0      :      2.92s CPU      3.76s WALL (      16 calls)
     dynmat_us    :      2.63s CPU      2.71s WALL (      16 calls)
     d2ionq       :      0.00s CPU      0.01s WALL (      16 calls)
     dynmatcc     :      0.27s CPU      0.27s WALL (      16 calls)
 
     dynmat_us    :      2.63s CPU      2.71s WALL (      16 calls)
 
     phqscf       :   2098.58s CPU   2266.74s WALL (      16 calls)
     solve_linter :   2092.40s CPU   2258.01s WALL (      76 calls)
 
     solve_linter :   2092.40s CPU   2258.01s WALL (      76 calls)
     dvqpsi_us    :     22.66s CPU     23.64s WALL (   25476 calls)
     sth_kernel   :   2051.46s CPU   2174.87s WALL (     589 calls)
     apply_dpot_b :    117.93s CPU    124.20s WALL (  177915 calls)
     ortho        :      6.45s CPU      6.81s WALL (  203391 calls)
     cgsolve      :   1734.38s CPU   1819.17s WALL (  203391 calls)
     incdrhoscf   :    170.88s CPU    177.40s WALL (  203307 calls)
     dv_of_drho   :      0.27s CPU      0.27s WALL (     716 calls)
     mix_pot      :      2.96s CPU     28.32s WALL (     589 calls)
     psymdvscf    :      8.45s CPU      8.55s WALL (     584 calls)
 
     dvqpsi_us    :     22.66s CPU     23.64s WALL (   25476 calls)
     dvqpsi_us_on :      3.24s CPU      3.38s WALL (   25476 calls)
 
     cgsolve      :   1734.38s CPU   1819.17s WALL (  203391 calls)
     ch_psi       :   1659.74s CPU   1739.76s WALL ( 2322819 calls)
 
     ch_psi       :   1659.74s CPU   1739.76s WALL ( 2322819 calls)
     h_psi        :   1575.95s CPU   1652.84s WALL ( 2446949 calls)
     last         :    144.91s CPU    152.01s WALL ( 2322819 calls)
 
     h_psi        :   1575.95s CPU   1652.84s WALL ( 2446949 calls)
     add_vuspsi   :     47.01s CPU     50.00s WALL ( 2446949 calls)
 
     incdrhoscf   :    170.88s CPU    177.40s WALL (  203307 calls)
 
 
      General routines
     calbec       :    182.34s CPU    192.67s WALL ( 4913264 calls)
     fft          :      0.67s CPU      0.70s WALL (    3953 calls)
     ffts         :      2.76s CPU      2.88s WALL (   25932 calls)
     fftw         :   1616.26s CPU   1694.34s WALL (20897090 calls)
     davcio       :      9.37s CPU     34.99s WALL ( 1061908 calls)
     write_rec    :      0.65s CPU     18.59s WALL (     665 calls)
 
 
     PHONON       :  36m58.09s CPU  40m18.08s WALL

 
   This run was terminated on:   2:44:32  27Jun2022            

=------------------------------------------------------------------------------=
   JOB DONE.
=------------------------------------------------------------------------------=
real 2421.65
user 44854.49
sys 2017.42
