Module for gcc 10.2:
(GNU C/C++/FORTRAN compilers v10.2.0) - loaded.
Module for OpenMPI 4.1.0-gcc10.2-infiniband loaded.

     Program PWSCF v.7.0 starts on 17Feb2022 at 10:39:23 

     This program is part of the open-source Quantum ESPRESSO suite
     for quantum simulation of materials; please cite
         "P. Giannozzi et al., J. Phys.:Condens. Matter 21 395502 (2009);
         "P. Giannozzi et al., J. Phys.:Condens. Matter 29 465901 (2017);
         "P. Giannozzi et al., J. Chem. Phys. 152 154105 (2020);
          URL http://www.quantum-espresso.org", 
     in publications or presentations arising from this work. More details at
     http://www.quantum-espresso.org/quote

     Parallel version (MPI), running on     4 processors

     MPI processes distributed on     1 nodes
     K-points division:     npool     =       4
     50924 MiB available memory on the printing compute node when the environment starts

     Reading input from in_files/silicon_bench_nk_4_n_procs_4.scf

     Current dimensions of program PWSCF are:
     Max number of different atomic species (ntypx) = 10
     Max number of k-points (npk) =  40000
     Max angular momentum in pseudopotentials (lmaxx) =  4

     Subspace diagonalization in iterative solution of the eigenvalue problem:
     a serial algorithm will be used


     G-vector sticks info
     --------------------
     sticks:   dense  smooth     PW     G-vecs:    dense   smooth      PW
     Sum        1003    1003    301                20875    20875    3479

     Using Slab Decomposition



     bravais-lattice index     =            2
     lattice parameter (alat)  =      10.2000  a.u.
     unit-cell volume          =     265.3020 (a.u.)^3
     number of atoms/cell      =            2
     number of atomic types    =            1
     number of electrons       =         8.00
     number of Kohn-Sham states=            4
     kinetic-energy cutoff     =      70.0000  Ry
     charge density cutoff     =     280.0000  Ry
     scf convergence threshold =      1.0E-12
     mixing beta               =       0.7000
     number of iterations used =            8  plain     mixing
     Exchange-correlation= PBE
                           (   1   4   3   4   0   0   0)

     celldm(1)=  10.200000  celldm(2)=   0.000000  celldm(3)=   0.000000
     celldm(4)=   0.000000  celldm(5)=   0.000000  celldm(6)=   0.000000

     crystal axes: (cart. coord. in units of alat)
               a(1) = (  -0.500000   0.000000   0.500000 )  
               a(2) = (   0.000000   0.500000   0.500000 )  
               a(3) = (  -0.500000   0.500000   0.000000 )  

     reciprocal axes: (cart. coord. in units 2 pi/alat)
               b(1) = ( -1.000000 -1.000000  1.000000 )  
               b(2) = (  1.000000  1.000000  1.000000 )  
               b(3) = ( -1.000000  1.000000 -1.000000 )  


     PseudoPot. # 1 for Si read from file:
     ./pseudos/Si_pbe_v0.4.1.nc.sr.upf
     MD5 check sum: 02fab3f35e82123ef5bf1cb05d5b1a5e
     Pseudo is Norm-conserving + core correction, Zval =  4.0
     Generated using ONCVPSP code by D. R. Hamann
     Using radial grid of 1510 points,  6 beta functions with: 
                l(1) =   0
                l(2) =   0
                l(3) =   1
                l(4) =   1
                l(5) =   2
                l(6) =   2

     atomic species   valence    mass     pseudopotential
        Si             4.00    28.08600     Si( 1.00)

     48 Sym. Ops., with inversion, found (24 have fractional translation)



   Cartesian axes

     site n.     atom                  positions (alat units)
         1           Si  tau(   1) = (   0.0000000   0.0000000   0.0000000  )
         2           Si  tau(   2) = (   0.2500000   0.2500000   0.2500000  )

     number of k points=  1661

     Number of k-points >= 100: set verbosity='high' to print them.

     Dense  grid:    20875 G-vectors     FFT dimensions: (  40,  40,  40)

     Estimated max dynamical RAM per process >      83.29 MB

     Estimated total dynamical RAM >     317.87 MB

     Initial potential from superposition of free atoms

     starting charge       7.9988, renormalised to       8.0000
     Starting wfcs are    8 randomized atomic wfcs

     total cpu time spent up to now is        6.8 secs

     Self-consistent Calculation

     iteration #  1     ecut=    70.00 Ry     beta= 0.70
     Davidson diagonalization with overlap
     ethr =  1.00E-02,  avg # of iterations =  2.0

     Threshold (ethr) on eigenvalues was too large:
     Diagonalizing with lowered threshold

     Davidson diagonalization with overlap
     ethr =  5.86E-04,  avg # of iterations =  2.0

     total cpu time spent up to now is       28.2 secs

     total energy              =     -16.92149678 Ry
     estimated scf accuracy    <       0.05529678 Ry

     iteration #  2     ecut=    70.00 Ry     beta= 0.70
     Davidson diagonalization with overlap
     ethr =  6.91E-04,  avg # of iterations =  1.0

     total cpu time spent up to now is       36.5 secs

     total energy              =     -16.92319999 Ry
     estimated scf accuracy    <       0.00290936 Ry

     iteration #  3     ecut=    70.00 Ry     beta= 0.70
     Davidson diagonalization with overlap
     ethr =  3.64E-05,  avg # of iterations =  2.3

     total cpu time spent up to now is       48.1 secs

     total energy              =     -16.92386728 Ry
     estimated scf accuracy    <       0.00006620 Ry

     iteration #  4     ecut=    70.00 Ry     beta= 0.70
     Davidson diagonalization with overlap
     ethr =  8.27E-07,  avg # of iterations =  5.1

     total cpu time spent up to now is       65.3 secs

     total energy              =     -16.92395275 Ry
     estimated scf accuracy    <       0.00000026 Ry

     iteration #  5     ecut=    70.00 Ry     beta= 0.70
     Davidson diagonalization with overlap
     ethr =  3.21E-09,  avg # of iterations =  6.5

     total cpu time spent up to now is       87.1 secs

     total energy              =     -16.92395445 Ry
     estimated scf accuracy    <          7.3E-09 Ry

     iteration #  6     ecut=    70.00 Ry     beta= 0.70
     Davidson diagonalization with overlap
     ethr =  9.09E-11,  avg # of iterations =  3.8

     total cpu time spent up to now is      102.0 secs

     total energy              =     -16.92395445 Ry
     estimated scf accuracy    <          5.2E-10 Ry

     iteration #  7     ecut=    70.00 Ry     beta= 0.70
     Davidson diagonalization with overlap
     ethr =  6.50E-12,  avg # of iterations =  3.5

     total cpu time spent up to now is      116.0 secs

     total energy              =     -16.92395445 Ry
     estimated scf accuracy    <          1.1E-10 Ry

     iteration #  8     ecut=    70.00 Ry     beta= 0.70
     Davidson diagonalization with overlap
     ethr =  1.32E-12,  avg # of iterations =  2.2

     total cpu time spent up to now is      127.0 secs

     End of self-consistent calculation

     Number of k-points >= 100: set verbosity='high' to print the bands.

     highest occupied level (ev):     6.4228

!    total energy              =     -16.92395445 Ry
     estimated scf accuracy    <          1.4E-13 Ry

     The total energy is the sum of the following terms:
     one-electron contribution =       5.10086347 Ry
     hartree contribution      =       1.07923929 Ry
     xc contribution           =      -6.20429864 Ry
     ewald contribution        =     -16.89975857 Ry

     convergence has been achieved in   8 iterations

     Writing all to output data dir /fastscratch/tsievers/QE_TMP_DIR/silicon_bench_nk_4_n_procs_4.save/

     init_run     :      6.64s CPU      6.71s WALL (       1 calls)
     electrons    :    119.48s CPU    120.22s WALL (       1 calls)

     Called by init_run:
     wfcinit      :      6.19s CPU      6.24s WALL (       1 calls)
     potinit      :      0.05s CPU      0.05s WALL (       1 calls)
     hinit0       :      0.29s CPU      0.29s WALL (       1 calls)

     Called by electrons:
     c_bands      :    106.97s CPU    107.56s WALL (       9 calls)
     sum_band     :     12.14s CPU     12.25s WALL (       9 calls)
     v_of_rho     :      0.35s CPU      0.37s WALL (       9 calls)
     mix_rho      :      0.03s CPU      0.03s WALL (       9 calls)

     Called by c_bands:
     init_us_2    :      7.55s CPU      7.61s WALL (    7904 calls)
     init_us_2:cp :      7.52s CPU      7.59s WALL (    7904 calls)
     cegterg      :     80.43s CPU     80.85s WALL (    3744 calls)

     Called by *egterg:
     cdiaghg      :      0.48s CPU      0.49s WALL (   15584 calls)
     h_psi        :     76.25s CPU     76.66s WALL (   16416 calls)
     g_psi        :      0.75s CPU      0.76s WALL (   12256 calls)

     Called by h_psi:
     h_psi:calbec :      8.13s CPU      8.16s WALL (   16416 calls)
     vloc_psi     :     59.41s CPU     59.75s WALL (   16416 calls)
     add_vuspsi   :      8.37s CPU      8.42s WALL (   16416 calls)

     General routines
     calbec       :      8.09s CPU      8.13s WALL (   16416 calls)
     fft          :      0.25s CPU      0.25s WALL (      91 calls)
     ffts         :      0.01s CPU      0.01s WALL (       9 calls)
     fftw         :     57.59s CPU     57.96s WALL (  124678 calls)

     Parallel routines

     PWSCF        :   2m 6.41s CPU   2m16.42s WALL


   This run was terminated on:  10:41:39  17Feb2022            

=------------------------------------------------------------------------------=
   JOB DONE.
=------------------------------------------------------------------------------=
