
     Program PHONON v.7.0 starts on  5Jun2022 at  1:35:57 

     This program is part of the open-source Quantum ESPRESSO suite
     for quantum simulation of materials; please cite
         "P. Giannozzi et al., J. Phys.:Condens. Matter 21 395502 (2009);
         "P. Giannozzi et al., J. Phys.:Condens. Matter 29 465901 (2017);
         "P. Giannozzi et al., J. Chem. Phys. 152 154105 (2020);
          URL http://www.quantum-espresso.org", 
     in publications or presentations arising from this work. More details at
     http://www.quantum-espresso.org/quote

     Parallel version (MPI), running on   152 processors

     MPI processes distributed on     8 nodes
     path-images division:  nimage    =       2
     K-points division:     npool     =      38
     R & G space division:  proc/nbgrp/npool/nimage =       2
     4245 MiB available memory on the printing compute node when the environment starts
 
     Reading input from /fastscratch/tsievers/si_ph_benchmark_images/si_ph_bench_nimages_2_n_procs_152_0.ph
      Title line not specified: using 'default'.

     Reading xml data from directory:

     /fastscratch/tsievers/QE_TMP_DIR/si_ph_bench_nimages_2_n_procs_152_0.save/

     IMPORTANT: XC functional enforced from input :
     Exchange-correlation= PW
                           (   1   4   0   0   0   0   0)
     Any further DFT definition will be discarded
     Please, verify this is what you really want

 
     Parallelization info
     --------------------
     sticks:   dense  smooth     PW     G-vecs:    dense   smooth      PW
     Min         501     501    150                10436    10436    1738
     Max         502     502    151                10439    10439    1741
     Sum        1003    1003    301                20875    20875    3479
 
     Using Slab Decomposition
 
     Message from routine divide_et_impera:
     suboptimal parallelization: some nodes have no k-points
     Reading collected, re-writing distributed wavefunctions


     Dynamical matrices for ( 6, 6, 6)  uniform grid of q-points
     (  16 q-points):
       N         xq(1)         xq(2)         xq(3) 
       1   0.000000000   0.000000000   0.000000000
       2  -0.166666667   0.166666667  -0.166666667
       3  -0.333333333   0.333333333  -0.333333333
       4   0.500000000  -0.500000000   0.500000000
       5   0.000000000   0.333333333   0.000000000
       6  -0.166666667   0.500000000  -0.166666667
       7   0.666666667  -0.333333333   0.666666667
       8   0.500000000  -0.166666667   0.500000000
       9   0.333333333   0.000000000   0.333333333
      10   0.000000000   0.666666667   0.000000000
      11   0.833333333  -0.166666667   0.833333333
      12   0.666666667  -0.000000000   0.666666667
      13   0.000000000  -1.000000000   0.000000000
      14   0.666666667  -0.333333333   1.000000000
      15   0.500000000  -0.166666667   0.833333333
      16  -0.333333333  -1.000000000   0.000000000

      Image parallelization. There are  2 images and    76 representations
      The estimated total work is  1512 self-consistent (scf) runs
      I am image number     0 and my work is about  753 scf runs. I calculate: 
      q point number     1, representations:
       0 1 2
      q point number     2, representations:
       0 1 2 3 4
      q point number     3, representations:
       0 1 2 3 4
      q point number     4, representations:
       0 1 2 3 4
      q point number     5, representations:
       0 1 2 3 4
      q point number     6, representations:
       0 1 2 3 4 5 6
      q point number     7, representations:
       0 1 2 3 4 5 6
      q point number     8, representations:
       0 1 2 3 4 5 6
      q point number     9, representations:
       0 1 2 3 4

     Calculation of q =    0.0000000   0.0000000   0.0000000

     default                                                                    

     bravais-lattice index     =            2
     lattice parameter (alat)  =      10.1899  a.u.
     unit-cell volume          =     264.5151 (a.u.)^3
     number of atoms/cell      =            2
     number of atomic types    =            1
     kinetic-energy cut-off    =      70.0000  Ry
     charge density cut-off    =     280.0000  Ry
     convergence threshold     =      1.0E-15
     beta                      =       0.7000
     number of iterations used =            4
     Exchange-correlation= PW
                           (   1   4   0   0   0   0   0)


     celldm(1)=   10.18990  celldm(2)=    0.00000  celldm(3)=    0.00000
     celldm(4)=    0.00000  celldm(5)=    0.00000  celldm(6)=    0.00000

     crystal axes: (cart. coord. in units of alat)
               a(1) = ( -0.5000  0.0000  0.5000 )  
               a(2) = (  0.0000  0.5000  0.5000 )  
               a(3) = ( -0.5000  0.5000  0.0000 )  

     reciprocal axes: (cart. coord. in units 2 pi/alat)
               b(1) = ( -1.0000 -1.0000  1.0000 )  
               b(2) = (  1.0000  1.0000  1.0000 )  
               b(3) = ( -1.0000  1.0000 -1.0000 )  


     Atoms inside the unit cell: 

     Cartesian axes

     site n.  atom      mass           positions (alat units)
        1     Si  28.0855   tau(    1) = (    0.00000    0.00000    0.00000  )
        2     Si  28.0855   tau(    2) = (   -0.25000    0.25000    0.25000  )

     Computing dynamical matrix for 
                    q = (   0.0000000   0.0000000   0.0000000 )
 
     49 Sym.Ops. (with q -> -q+G )


     G cutoff =  736.4420  (  10439 G-vectors)     FFT grid: ( 40, 40, 40)
     number of k points=    28

     PseudoPot. # 1 for Si read from file:
     /fastscratch/tsievers/si_ph_benchmark_images//pseudos/Si.nc.UPF
     MD5 check sum: 9e2d726316af3d4752eea8ab0afbb951
     Pseudo is Norm-conserving + core correction, Zval =  4.0
     Generated using ONCVPSP code by D. R. Hamann
     Using radial grid of 1510 points,  6 beta functions with: 
                l(1) =   0
                l(2) =   0
                l(3) =   1
                l(4) =   1
                l(5) =   2
                l(6) =   2

     Mode symmetry, O_h (m-3m)  point group:


     Electric field:
     Dielectric constant
     Born effective charges in two ways 


     Atomic displacements:
     There are    2 irreducible representations

     Representation     1      3 modes -  To be done

     Representation     2      3 modes -  To be done



     Alpha used in Ewald sum =   2.8000
     PHONON       :      0.97s CPU      1.34s WALL


     Electric Fields Calculation

      iter #   1 total cpu time :     2.3 secs   av.it.:   6.5
      thresh= 1.000E-02 alpha_mix =  0.700 |ddv_scf|^2 =  1.151E-07

      iter #   2 total cpu time :     6.9 secs   av.it.:  11.6
      thresh= 3.392E-05 alpha_mix =  0.700 |ddv_scf|^2 =  4.931E-09

      iter #   3 total cpu time :     9.6 secs   av.it.:  11.5
      thresh= 7.022E-06 alpha_mix =  0.700 |ddv_scf|^2 =  5.558E-11

      iter #   4 total cpu time :    18.6 secs   av.it.:  11.8
      thresh= 7.455E-07 alpha_mix =  0.700 |ddv_scf|^2 =  3.297E-13

      iter #   5 total cpu time :    21.4 secs   av.it.:  10.9
      thresh= 5.742E-08 alpha_mix =  0.700 |ddv_scf|^2 =  1.210E-16

     End of electric fields calculation

          Dielectric constant in cartesian axis 

          (      13.312095392       0.000000000      -0.000000000 )
          (       0.000000000      13.312095392      -0.000000000 )
          (       0.000000000      -0.000000000      13.312095392 )

          Effective charges (d Force / dE) in cartesian axis without acoustic sum rule applied (asr)

           atom      1   Si Mean Z*:       -0.00677
      Ex  (       -0.00677       -0.00000        0.00000 )
      Ey  (       -0.00000       -0.00677       -0.00000 )
      Ez  (        0.00000       -0.00000       -0.00677 )
           atom      2   Si Mean Z*:       -0.00677
      Ex  (       -0.00677       -0.00000       -0.00000 )
      Ey  (       -0.00000       -0.00677        0.00000 )
      Ez  (       -0.00000        0.00000       -0.00677 )

          Effective charges Sum: Mean:       -0.01353
             -0.01353       -0.00000       -0.00000
             -0.00000       -0.01353        0.00000
              0.00000        0.00000       -0.01353

          Effective charges (d Force / dE) in cartesian axis with asr applied: 
           atom      1   Si Mean Z*:        0.00000
      E*x (        0.00000        0.00000        0.00000 )
      E*y (        0.00000        0.00000       -0.00000 )
      E*z (        0.00000       -0.00000        0.00000 )
           atom      2   Si Mean Z*:       -0.00000
      E*x (       -0.00000       -0.00000       -0.00000 )
      E*y (       -0.00000       -0.00000        0.00000 )
      E*z (       -0.00000        0.00000       -0.00000 )


     Representation #   1 modes #   1   2   3

     Self-consistent Calculation

      iter #   1 total cpu time :    24.0 secs   av.it.:   5.8
      thresh= 1.000E-02 alpha_mix =  0.700 |ddv_scf|^2 =  1.659E-08

      iter #   2 total cpu time :    28.9 secs   av.it.:  11.6
      thresh= 1.288E-05 alpha_mix =  0.700 |ddv_scf|^2 =  3.728E-10

      iter #   3 total cpu time :    34.1 secs   av.it.:  11.6
      thresh= 1.931E-06 alpha_mix =  0.700 |ddv_scf|^2 =  1.391E-11

      iter #   4 total cpu time :    39.9 secs   av.it.:  11.4
      thresh= 3.730E-07 alpha_mix =  0.700 |ddv_scf|^2 =  4.505E-14

      iter #   5 total cpu time :    41.3 secs   av.it.:  11.8
      thresh= 2.123E-08 alpha_mix =  0.700 |ddv_scf|^2 =  2.091E-16

     End of self-consistent calculation

     Convergence has been achieved 


     Representation #   2 modes #   4   5   6

     Self-consistent Calculation

      iter #   1 total cpu time :    48.3 secs   av.it.:   6.0
      thresh= 1.000E-02 alpha_mix =  0.700 |ddv_scf|^2 =  1.197E-08

      iter #   2 total cpu time :    55.0 secs   av.it.:  11.8
      thresh= 1.094E-05 alpha_mix =  0.700 |ddv_scf|^2 =  4.305E-10

      iter #   3 total cpu time :    67.0 secs   av.it.:  11.8
      thresh= 2.075E-06 alpha_mix =  0.700 |ddv_scf|^2 =  1.960E-11

      iter #   4 total cpu time :    71.9 secs   av.it.:  11.7
      thresh= 4.427E-07 alpha_mix =  0.700 |ddv_scf|^2 =  3.509E-14

      iter #   5 total cpu time :    73.7 secs   av.it.:  11.8
      thresh= 1.873E-08 alpha_mix =  0.700 |ddv_scf|^2 =  9.448E-17

     End of self-consistent calculation

     Convergence has been achieved 
 
     Number of q in the star =    1
     List of q in the star:
          1   0.000000000   0.000000000   0.000000000

          Dielectric constant in cartesian axis 

          (      13.312095392       0.000000000      -0.000000000 )
          (       0.000000000      13.312095392      -0.000000000 )
          (       0.000000000      -0.000000000      13.312095392 )

          Effective charges (d Force / dE) in cartesian axis without acoustic sum rule applied (asr)

           atom      1   Si Mean Z*:       -0.00677
      Ex  (       -0.00677       -0.00000        0.00000 )
      Ey  (       -0.00000       -0.00677       -0.00000 )
      Ez  (        0.00000       -0.00000       -0.00677 )
           atom      2   Si Mean Z*:       -0.00677
      Ex  (       -0.00677       -0.00000       -0.00000 )
      Ey  (       -0.00000       -0.00677        0.00000 )
      Ez  (       -0.00000        0.00000       -0.00677 )

          Effective charges Sum: Mean:       -0.01353
             -0.01353       -0.00000       -0.00000
             -0.00000       -0.01353        0.00000
              0.00000        0.00000       -0.01353

          Effective charges (d Force / dE) in cartesian axis with asr applied: 
           atom      1   Si Mean Z*:        0.00000
      E*x (        0.00000        0.00000        0.00000 )
      E*y (        0.00000        0.00000       -0.00000 )
      E*z (        0.00000       -0.00000        0.00000 )
           atom      2   Si Mean Z*:       -0.00000
      E*x (       -0.00000       -0.00000       -0.00000 )
      E*y (       -0.00000       -0.00000        0.00000 )
      E*z (       -0.00000        0.00000       -0.00000 )

          Effective charges (d P / du) in cartesian axis 

           atom      1   Si 
      Px  (       -0.00683        0.00000       -0.00000 )
      Py  (        0.00000       -0.00683       -0.00000 )
      Pz  (       -0.00000       -0.00000       -0.00683 )
           atom      2   Si 
      Px  (       -0.00683        0.00000       -0.00000 )
      Py  (        0.00000       -0.00683       -0.00000 )
      Pz  (       -0.00000       -0.00000       -0.00683 )

     Diagonalizing the dynamical matrix

     q = (    0.000000000   0.000000000   0.000000000 ) 

 **************************************************************************
     freq (    1) =      -0.114892 [THz] =      -3.832391 [cm-1]
     freq (    2) =      -0.114892 [THz] =      -3.832391 [cm-1]
     freq (    3) =      -0.114892 [THz] =      -3.832391 [cm-1]
     freq (    4) =      15.412107 [THz] =     514.092564 [cm-1]
     freq (    5) =      15.412107 [THz] =     514.092564 [cm-1]
     freq (    6) =      15.412107 [THz] =     514.092564 [cm-1]
 **************************************************************************

     Mode symmetry, O_h (m-3m)  point group:

     freq (   1-   3) =         -3.8  [cm-1]   --> T_1u G_15  G_4- I  
     freq (   4-   6) =        514.1  [cm-1]   --> T_2g G_25' G_5+ R  

     Calculation of q =   -0.1666667   0.1666667  -0.1666667

     Subspace diagonalization in iterative solution of the eigenvalue problem:
     a serial algorithm will be used

 
     Parallelization info
     --------------------
     sticks:   dense  smooth     PW     G-vecs:    dense   smooth      PW
     Min         501     501    156                10436    10436    1847
     Max         502     502    157                10439    10439    1848
     Sum        1003    1003    313                20875    20875    3695
 
     Using Slab Decomposition
 

     Title: 
     default                                                                    


     bravais-lattice index     =            2
     lattice parameter (alat)  =      10.1899  a.u.
     unit-cell volume          =     264.5151 (a.u.)^3
     number of atoms/cell      =            2
     number of atomic types    =            1
     number of electrons       =         8.00
     number of Kohn-Sham states=            4
     kinetic-energy cutoff     =      70.0000  Ry
     charge density cutoff     =     280.0000  Ry
     Exchange-correlation= PW
                           (   1   4   0   0   0   0   0)

     celldm(1)=  10.189905  celldm(2)=   0.000000  celldm(3)=   0.000000
     celldm(4)=   0.000000  celldm(5)=   0.000000  celldm(6)=   0.000000

     crystal axes: (cart. coord. in units of alat)
               a(1) = (  -0.500000   0.000000   0.500000 )  
               a(2) = (   0.000000   0.500000   0.500000 )  
               a(3) = (  -0.500000   0.500000   0.000000 )  

     reciprocal axes: (cart. coord. in units 2 pi/alat)
               b(1) = ( -1.000000 -1.000000  1.000000 )  
               b(2) = (  1.000000  1.000000  1.000000 )  
               b(3) = ( -1.000000  1.000000 -1.000000 )  


     PseudoPot. # 1 for Si read from file:
     /fastscratch/tsievers/si_ph_benchmark_images//pseudos/Si.nc.UPF
     MD5 check sum: 9e2d726316af3d4752eea8ab0afbb951
     Pseudo is Norm-conserving + core correction, Zval =  4.0
     Generated using ONCVPSP code by D. R. Hamann
     Using radial grid of 1510 points,  6 beta functions with: 
                l(1) =   0
                l(2) =   0
                l(3) =   1
                l(4) =   1
                l(5) =   2
                l(6) =   2

     atomic species   valence    mass     pseudopotential
        Si             4.00    28.08550     Si( 1.00)

     48 Sym. Ops., with inversion, found



   Cartesian axes

     site n.     atom                  positions (alat units)
         1           Si  tau(   1) = (   0.0000000   0.0000000   0.0000000  )
         2           Si  tau(   2) = (  -0.2500000   0.2500000   0.2500000  )

     number of k points=   364

     Number of k-points >= 100: set verbosity='high' to print them.

     Dense  grid:    20875 G-vectors     FFT dimensions: (  40,  40,  40)

     Estimated max dynamical RAM per process >       6.40 MB

     Estimated total dynamical RAM >     486.13 MB

     The potential is recalculated from file :
     /fastscratch/tsievers/QE_TMP_DIR/_ph0/si_ph_bench_nimages_2_n_procs_152_0.save/charge-density

     Starting wfcs are    8 atomic wfcs

     Band Structure Calculation
     Davidson diagonalization with overlap

     ethr =  1.25E-10,  avg # of iterations = 12.9

     total cpu time spent up to now is        3.6 secs

     End of band structure calculation

     Number of k-points >= 100: set verbosity='high' to print the bands.

     highest occupied level (ev):     6.1106

     Writing config to output data dir /fastscratch/tsievers/QE_TMP_DIR/_ph0/si_ph_bench_nimages_2_n_procs_152_0.save/

     default                                                                    

     bravais-lattice index     =            2
     lattice parameter (alat)  =      10.1899  a.u.
     unit-cell volume          =     264.5151 (a.u.)^3
     number of atoms/cell      =            2
     number of atomic types    =            1
     kinetic-energy cut-off    =      70.0000  Ry
     charge density cut-off    =     280.0000  Ry
     convergence threshold     =      1.0E-15
     beta                      =       0.7000
     number of iterations used =            4
     Exchange-correlation= PW
                           (   1   4   0   0   0   0   0)


     celldm(1)=   10.18990  celldm(2)=    0.00000  celldm(3)=    0.00000
     celldm(4)=    0.00000  celldm(5)=    0.00000  celldm(6)=    0.00000

     crystal axes: (cart. coord. in units of alat)
               a(1) = ( -0.5000  0.0000  0.5000 )  
               a(2) = (  0.0000  0.5000  0.5000 )  
               a(3) = ( -0.5000  0.5000  0.0000 )  

     reciprocal axes: (cart. coord. in units 2 pi/alat)
               b(1) = ( -1.0000 -1.0000  1.0000 )  
               b(2) = (  1.0000  1.0000  1.0000 )  
               b(3) = ( -1.0000  1.0000 -1.0000 )  


     Atoms inside the unit cell: 

     Cartesian axes

     site n.  atom      mass           positions (alat units)
        1     Si  28.0855   tau(    1) = (    0.00000    0.00000    0.00000  )
        2     Si  28.0855   tau(    2) = (   -0.25000    0.25000    0.25000  )

     Computing dynamical matrix for 
                    q = (  -0.1666667   0.1666667  -0.1666667 )
 
      6 Sym.Ops. (no q -> -q+G )


     G cutoff =  736.4420  (  10439 G-vectors)     FFT grid: ( 40, 40, 40)
     number of k points=   364

     PseudoPot. # 1 for Si read from file:
     /fastscratch/tsievers/si_ph_benchmark_images//pseudos/Si.nc.UPF
     MD5 check sum: 9e2d726316af3d4752eea8ab0afbb951
     Pseudo is Norm-conserving + core correction, Zval =  4.0
     Generated using ONCVPSP code by D. R. Hamann
     Using radial grid of 1510 points,  6 beta functions with: 
                l(1) =   0
                l(2) =   0
                l(3) =   1
                l(4) =   1
                l(5) =   2
                l(6) =   2

     Mode symmetry, C_3v (3m)   point group:


     Atomic displacements:
     There are    4 irreducible representations

     Representation     1      1 modes -  To be done

     Representation     2      1 modes -  To be done

     Representation     3      2 modes -  To be done

     Representation     4      2 modes -  To be done



     Alpha used in Ewald sum =   2.8000
     PHONON       :     37.32s CPU   1m34.89s WALL



     Representation #   1 mode #   1

     Self-consistent Calculation

      iter #   1 total cpu time :    95.3 secs   av.it.:   6.6
      thresh= 1.000E-02 alpha_mix =  0.700 |ddv_scf|^2 =  1.552E-03

      iter #   2 total cpu time :    96.9 secs   av.it.:   8.8
      thresh= 3.939E-03 alpha_mix =  0.700 |ddv_scf|^2 =  5.085E-02

      iter #   3 total cpu time :    99.3 secs   av.it.:   7.6
      thresh= 1.000E-02 alpha_mix =  0.700 |ddv_scf|^2 =  4.142E-07

      iter #   4 total cpu time :   100.7 secs   av.it.:   9.1
      thresh= 6.436E-05 alpha_mix =  0.700 |ddv_scf|^2 =  1.353E-08

      iter #   5 total cpu time :   103.5 secs   av.it.:   9.4
      thresh= 1.163E-05 alpha_mix =  0.700 |ddv_scf|^2 =  9.229E-10

      iter #   6 total cpu time :   106.0 secs   av.it.:   8.2
      thresh= 3.038E-06 alpha_mix =  0.700 |ddv_scf|^2 =  1.589E-09

      iter #   7 total cpu time :   108.3 secs   av.it.:   7.9
      thresh= 3.986E-06 alpha_mix =  0.700 |ddv_scf|^2 =  9.316E-11

      iter #   8 total cpu time :   110.0 secs   av.it.:   8.4
      thresh= 9.652E-07 alpha_mix =  0.700 |ddv_scf|^2 =  7.444E-13

      iter #   9 total cpu time :   113.9 secs   av.it.:   8.2
      thresh= 8.628E-08 alpha_mix =  0.700 |ddv_scf|^2 =  1.665E-14

      iter #  10 total cpu time :   116.8 secs   av.it.:   8.5
      thresh= 1.291E-08 alpha_mix =  0.700 |ddv_scf|^2 =  1.580E-15

      iter #  11 total cpu time :   117.6 secs   av.it.:   9.0
      thresh= 3.975E-09 alpha_mix =  0.700 |ddv_scf|^2 =  2.325E-16

     End of self-consistent calculation

     Convergence has been achieved 


     Representation #   2 mode #   2

     Self-consistent Calculation

      iter #   1 total cpu time :   120.1 secs   av.it.:   6.6
      thresh= 1.000E-02 alpha_mix =  0.700 |ddv_scf|^2 =  1.552E-03

      iter #   2 total cpu time :   122.8 secs   av.it.:   8.8
      thresh= 3.939E-03 alpha_mix =  0.700 |ddv_scf|^2 =  5.085E-02

      iter #   3 total cpu time :   125.8 secs   av.it.:   7.6
      thresh= 1.000E-02 alpha_mix =  0.700 |ddv_scf|^2 =  4.142E-07

      iter #   4 total cpu time :   127.3 secs   av.it.:   9.1
      thresh= 6.436E-05 alpha_mix =  0.700 |ddv_scf|^2 =  1.353E-08

      iter #   5 total cpu time :   131.0 secs   av.it.:   9.4
      thresh= 1.163E-05 alpha_mix =  0.700 |ddv_scf|^2 =  9.228E-10

      iter #   6 total cpu time :   134.5 secs   av.it.:   8.2
      thresh= 3.038E-06 alpha_mix =  0.700 |ddv_scf|^2 =  1.589E-09

      iter #   7 total cpu time :   137.2 secs   av.it.:   7.9
      thresh= 3.986E-06 alpha_mix =  0.700 |ddv_scf|^2 =  9.316E-11

      iter #   8 total cpu time :   140.3 secs   av.it.:   8.4
      thresh= 9.652E-07 alpha_mix =  0.700 |ddv_scf|^2 =  7.445E-13

      iter #   9 total cpu time :   143.7 secs   av.it.:   8.2
      thresh= 8.628E-08 alpha_mix =  0.700 |ddv_scf|^2 =  1.666E-14

      iter #  10 total cpu time :   145.5 secs   av.it.:   8.5
      thresh= 1.291E-08 alpha_mix =  0.700 |ddv_scf|^2 =  1.580E-15

      iter #  11 total cpu time :   145.9 secs   av.it.:   9.0
      thresh= 3.975E-09 alpha_mix =  0.700 |ddv_scf|^2 =  2.325E-16

     End of self-consistent calculation

     Convergence has been achieved 


     Representation #   3 modes #   3   4

     Self-consistent Calculation

      iter #   1 total cpu time :   147.4 secs   av.it.:   6.1
      thresh= 1.000E-02 alpha_mix =  0.700 |ddv_scf|^2 =  4.048E-08

      iter #   2 total cpu time :   150.6 secs   av.it.:  11.4
      thresh= 2.012E-05 alpha_mix =  0.700 |ddv_scf|^2 =  1.801E-09

      iter #   3 total cpu time :   153.8 secs   av.it.:  11.3
      thresh= 4.244E-06 alpha_mix =  0.700 |ddv_scf|^2 =  4.704E-11

      iter #   4 total cpu time :   157.8 secs   av.it.:  11.3
      thresh= 6.859E-07 alpha_mix =  0.700 |ddv_scf|^2 =  5.427E-13

      iter #   5 total cpu time :   162.6 secs   av.it.:  11.3
      thresh= 7.367E-08 alpha_mix =  0.700 |ddv_scf|^2 =  1.152E-14

      iter #   6 total cpu time :   164.4 secs   av.it.:  11.6
      thresh= 1.073E-08 alpha_mix =  0.700 |ddv_scf|^2 =  5.229E-17

     End of self-consistent calculation

     Convergence has been achieved 


     Representation #   4 modes #   5   6

     Self-consistent Calculation

      iter #   1 total cpu time :   171.6 secs   av.it.:   6.0
      thresh= 1.000E-02 alpha_mix =  0.700 |ddv_scf|^2 =  4.048E-08

      iter #   2 total cpu time :   176.1 secs   av.it.:  11.3
      thresh= 2.012E-05 alpha_mix =  0.700 |ddv_scf|^2 =  1.802E-09

      iter #   3 total cpu time :   178.7 secs   av.it.:  11.3
      thresh= 4.245E-06 alpha_mix =  0.700 |ddv_scf|^2 =  4.704E-11

      iter #   4 total cpu time :   182.8 secs   av.it.:  11.3
      thresh= 6.858E-07 alpha_mix =  0.700 |ddv_scf|^2 =  5.430E-13

      iter #   5 total cpu time :   186.9 secs   av.it.:  11.3
      thresh= 7.369E-08 alpha_mix =  0.700 |ddv_scf|^2 =  1.153E-14

      iter #   6 total cpu time :   188.8 secs   av.it.:  11.6
      thresh= 1.074E-08 alpha_mix =  0.700 |ddv_scf|^2 =  5.226E-17

     End of self-consistent calculation

     Convergence has been achieved 
 
     Number of q in the star =    8
     List of q in the star:
          1  -0.166666667   0.166666667  -0.166666667
          2   0.166666667   0.166666667   0.166666667
          3  -0.166666667  -0.166666667  -0.166666667
          4   0.166666667  -0.166666667   0.166666667
          5   0.166666667  -0.166666667  -0.166666667
          6   0.166666667   0.166666667  -0.166666667
          7  -0.166666667  -0.166666667   0.166666667
          8  -0.166666667   0.166666667   0.166666667

     Diagonalizing the dynamical matrix

     q = (   -0.166666667   0.166666667  -0.166666667 ) 

 **************************************************************************
     freq (    1) =       2.202755 [THz] =      73.475988 [cm-1]
     freq (    2) =       2.202755 [THz] =      73.475988 [cm-1]
     freq (    3) =       4.748090 [THz] =     158.379229 [cm-1]
     freq (    4) =      15.023910 [THz] =     501.143678 [cm-1]
     freq (    5) =      15.065889 [THz] =     502.543972 [cm-1]
     freq (    6) =      15.065889 [THz] =     502.543972 [cm-1]
 **************************************************************************

     Mode symmetry, C_3v (3m)   point group:

     freq (   1-   2) =         73.5  [cm-1]   --> E    L_3           
     freq (   3-   3) =        158.4  [cm-1]   --> A_1  L_1           
     freq (   4-   4) =        501.1  [cm-1]   --> A_1  L_1           
     freq (   5-   6) =        502.5  [cm-1]   --> E    L_3           

     Calculation of q =   -0.3333333   0.3333333  -0.3333333
 
     Parallelization info
     --------------------
     sticks:   dense  smooth     PW     G-vecs:    dense   smooth      PW
     Min         501     501    156                10436    10436    1917
     Max         502     502    157                10439    10439    1922
     Sum        1003    1003    313                20875    20875    3839
 
     Using Slab Decomposition
 

     Title: 
     default                                                                    


     bravais-lattice index     =            2
     lattice parameter (alat)  =      10.1899  a.u.
     unit-cell volume          =     264.5151 (a.u.)^3
     number of atoms/cell      =            2
     number of atomic types    =            1
     number of electrons       =         8.00
     number of Kohn-Sham states=            4
     kinetic-energy cutoff     =      70.0000  Ry
     charge density cutoff     =     280.0000  Ry
     Exchange-correlation= PW
                           (   1   4   0   0   0   0   0)

     celldm(1)=  10.189905  celldm(2)=   0.000000  celldm(3)=   0.000000
     celldm(4)=   0.000000  celldm(5)=   0.000000  celldm(6)=   0.000000

     crystal axes: (cart. coord. in units of alat)
               a(1) = (  -0.500000   0.000000   0.500000 )  
               a(2) = (   0.000000   0.500000   0.500000 )  
               a(3) = (  -0.500000   0.500000   0.000000 )  

     reciprocal axes: (cart. coord. in units 2 pi/alat)
               b(1) = ( -1.000000 -1.000000  1.000000 )  
               b(2) = (  1.000000  1.000000  1.000000 )  
               b(3) = ( -1.000000  1.000000 -1.000000 )  


     PseudoPot. # 1 for Si read from file:
     /fastscratch/tsievers/si_ph_benchmark_images//pseudos/Si.nc.UPF
     MD5 check sum: 9e2d726316af3d4752eea8ab0afbb951
     Pseudo is Norm-conserving + core correction, Zval =  4.0
     Generated using ONCVPSP code by D. R. Hamann
     Using radial grid of 1510 points,  6 beta functions with: 
                l(1) =   0
                l(2) =   0
                l(3) =   1
                l(4) =   1
                l(5) =   2
                l(6) =   2

     atomic species   valence    mass     pseudopotential
        Si             4.00    28.08550     Si( 1.00)

     48 Sym. Ops., with inversion, found



   Cartesian axes

     site n.     atom                  positions (alat units)
         1           Si  tau(   1) = (   0.0000000   0.0000000   0.0000000  )
         2           Si  tau(   2) = (  -0.2500000   0.2500000   0.2500000  )

     number of k points=   364

     Number of k-points >= 100: set verbosity='high' to print them.

     Dense  grid:    20875 G-vectors     FFT dimensions: (  40,  40,  40)

     Estimated max dynamical RAM per process >       6.41 MB

     Estimated total dynamical RAM >     487.17 MB

     The potential is recalculated from file :
     /fastscratch/tsievers/QE_TMP_DIR/_ph0/si_ph_bench_nimages_2_n_procs_152_0.save/charge-density

     Starting wfcs are    8 atomic wfcs

     Band Structure Calculation
     Davidson diagonalization with overlap

     ethr =  1.25E-10,  avg # of iterations = 12.9

     total cpu time spent up to now is        4.9 secs

     End of band structure calculation

     Number of k-points >= 100: set verbosity='high' to print the bands.

     highest occupied level (ev):     6.1106

     Writing config to output data dir /fastscratch/tsievers/QE_TMP_DIR/_ph0/si_ph_bench_nimages_2_n_procs_152_0.save/

     default                                                                    

     bravais-lattice index     =            2
     lattice parameter (alat)  =      10.1899  a.u.
     unit-cell volume          =     264.5151 (a.u.)^3
     number of atoms/cell      =            2
     number of atomic types    =            1
     kinetic-energy cut-off    =      70.0000  Ry
     charge density cut-off    =     280.0000  Ry
     convergence threshold     =      1.0E-15
     beta                      =       0.7000
     number of iterations used =            4
     Exchange-correlation= PW
                           (   1   4   0   0   0   0   0)


     celldm(1)=   10.18990  celldm(2)=    0.00000  celldm(3)=    0.00000
     celldm(4)=    0.00000  celldm(5)=    0.00000  celldm(6)=    0.00000

     crystal axes: (cart. coord. in units of alat)
               a(1) = ( -0.5000  0.0000  0.5000 )  
               a(2) = (  0.0000  0.5000  0.5000 )  
               a(3) = ( -0.5000  0.5000  0.0000 )  

     reciprocal axes: (cart. coord. in units 2 pi/alat)
               b(1) = ( -1.0000 -1.0000  1.0000 )  
               b(2) = (  1.0000  1.0000  1.0000 )  
               b(3) = ( -1.0000  1.0000 -1.0000 )  


     Atoms inside the unit cell: 

     Cartesian axes

     site n.  atom      mass           positions (alat units)
        1     Si  28.0855   tau(    1) = (    0.00000    0.00000    0.00000  )
        2     Si  28.0855   tau(    2) = (   -0.25000    0.25000    0.25000  )

     Computing dynamical matrix for 
                    q = (  -0.3333333   0.3333333  -0.3333333 )
 
      6 Sym.Ops. (no q -> -q+G )


     G cutoff =  736.4420  (  10439 G-vectors)     FFT grid: ( 40, 40, 40)
     number of k points=   364

     PseudoPot. # 1 for Si read from file:
     /fastscratch/tsievers/si_ph_benchmark_images//pseudos/Si.nc.UPF
     MD5 check sum: 9e2d726316af3d4752eea8ab0afbb951
     Pseudo is Norm-conserving + core correction, Zval =  4.0
     Generated using ONCVPSP code by D. R. Hamann
     Using radial grid of 1510 points,  6 beta functions with: 
                l(1) =   0
                l(2) =   0
                l(3) =   1
                l(4) =   1
                l(5) =   2
                l(6) =   2

     Mode symmetry, C_3v (3m)   point group:


     Atomic displacements:
     There are    4 irreducible representations

     Representation     1      1 modes -  To be done

     Representation     2      1 modes -  To be done

     Representation     3      2 modes -  To be done

     Representation     4      2 modes -  To be done



     Alpha used in Ewald sum =   2.8000
     PHONON       :   1m27.49s CPU   3m14.81s WALL



     Representation #   1 mode #   1

     Self-consistent Calculation

      iter #   1 total cpu time :   195.6 secs   av.it.:   6.5
      thresh= 1.000E-02 alpha_mix =  0.700 |ddv_scf|^2 =  9.826E-05

      iter #   2 total cpu time :   197.8 secs   av.it.:   9.7
      thresh= 9.913E-04 alpha_mix =  0.700 |ddv_scf|^2 =  7.842E-04

      iter #   3 total cpu time :   200.7 secs   av.it.:   8.3
      thresh= 2.800E-03 alpha_mix =  0.700 |ddv_scf|^2 =  1.444E-07

      iter #   4 total cpu time :   202.3 secs   av.it.:   9.8
      thresh= 3.800E-05 alpha_mix =  0.700 |ddv_scf|^2 =  2.930E-09

      iter #   5 total cpu time :   203.9 secs   av.it.:   9.8
      thresh= 5.413E-06 alpha_mix =  0.700 |ddv_scf|^2 =  3.095E-11

      iter #   6 total cpu time :   205.5 secs   av.it.:  10.4
      thresh= 5.563E-07 alpha_mix =  0.700 |ddv_scf|^2 =  3.144E-12

      iter #   7 total cpu time :   207.9 secs   av.it.:  10.3
      thresh= 1.773E-07 alpha_mix =  0.700 |ddv_scf|^2 =  2.055E-12

      iter #   8 total cpu time :   210.0 secs   av.it.:   9.4
      thresh= 1.433E-07 alpha_mix =  0.700 |ddv_scf|^2 =  2.458E-12

      iter #   9 total cpu time :   211.5 secs   av.it.:   8.9
      thresh= 1.568E-07 alpha_mix =  0.700 |ddv_scf|^2 =  2.984E-13

      iter #  10 total cpu time :   212.8 secs   av.it.:   8.9
      thresh= 5.462E-08 alpha_mix =  0.700 |ddv_scf|^2 =  1.744E-15

      iter #  11 total cpu time :   213.8 secs   av.it.:   9.6
      thresh= 4.176E-09 alpha_mix =  0.700 |ddv_scf|^2 =  1.673E-16

     End of self-consistent calculation

     Convergence has been achieved 


     Representation #   2 mode #   2

     Self-consistent Calculation

      iter #   1 total cpu time :   216.4 secs   av.it.:   6.5
      thresh= 1.000E-02 alpha_mix =  0.700 |ddv_scf|^2 =  9.826E-05

      iter #   2 total cpu time :   218.7 secs   av.it.:   9.7
      thresh= 9.913E-04 alpha_mix =  0.700 |ddv_scf|^2 =  7.842E-04

      iter #   3 total cpu time :   221.8 secs   av.it.:   8.3
      thresh= 2.800E-03 alpha_mix =  0.700 |ddv_scf|^2 =  1.444E-07

      iter #   4 total cpu time :   233.4 secs   av.it.:   9.8
      thresh= 3.800E-05 alpha_mix =  0.700 |ddv_scf|^2 =  2.930E-09

      iter #   5 total cpu time :   237.6 secs   av.it.:   9.8
      thresh= 5.413E-06 alpha_mix =  0.700 |ddv_scf|^2 =  3.095E-11

      iter #   6 total cpu time :   238.7 secs   av.it.:  10.4
      thresh= 5.563E-07 alpha_mix =  0.700 |ddv_scf|^2 =  3.144E-12

      iter #   7 total cpu time :   241.2 secs   av.it.:  10.3
      thresh= 1.773E-07 alpha_mix =  0.700 |ddv_scf|^2 =  2.056E-12

      iter #   8 total cpu time :   243.9 secs   av.it.:   9.4
      thresh= 1.434E-07 alpha_mix =  0.700 |ddv_scf|^2 =  2.458E-12

      iter #   9 total cpu time :   246.0 secs   av.it.:   8.9
      thresh= 1.568E-07 alpha_mix =  0.700 |ddv_scf|^2 =  2.984E-13

      iter #  10 total cpu time :   247.6 secs   av.it.:   8.9
      thresh= 5.463E-08 alpha_mix =  0.700 |ddv_scf|^2 =  1.745E-15

      iter #  11 total cpu time :   248.8 secs   av.it.:   9.6
      thresh= 4.177E-09 alpha_mix =  0.700 |ddv_scf|^2 =  1.674E-16

     End of self-consistent calculation

     Convergence has been achieved 


     Representation #   3 modes #   3   4

     Self-consistent Calculation

      iter #   1 total cpu time :   251.3 secs   av.it.:   6.1
      thresh= 1.000E-02 alpha_mix =  0.700 |ddv_scf|^2 =  5.514E-08

      iter #   2 total cpu time :   255.2 secs   av.it.:  11.4
      thresh= 2.348E-05 alpha_mix =  0.700 |ddv_scf|^2 =  3.819E-09

      iter #   3 total cpu time :   260.4 secs   av.it.:  11.2
      thresh= 6.180E-06 alpha_mix =  0.700 |ddv_scf|^2 =  5.530E-11

      iter #   4 total cpu time :   264.0 secs   av.it.:  11.4
      thresh= 7.436E-07 alpha_mix =  0.700 |ddv_scf|^2 =  5.548E-13

      iter #   5 total cpu time :   269.5 secs   av.it.:  11.3
      thresh= 7.448E-08 alpha_mix =  0.700 |ddv_scf|^2 =  1.080E-14

      iter #   6 total cpu time :   271.5 secs   av.it.:  11.5
      thresh= 1.039E-08 alpha_mix =  0.700 |ddv_scf|^2 =  7.352E-17

     End of self-consistent calculation

     Convergence has been achieved 


     Representation #   4 modes #   5   6

     Self-consistent Calculation

      iter #   1 total cpu time :   275.7 secs   av.it.:   6.1
      thresh= 1.000E-02 alpha_mix =  0.700 |ddv_scf|^2 =  5.515E-08

      iter #   2 total cpu time :   279.6 secs   av.it.:  11.3
      thresh= 2.348E-05 alpha_mix =  0.700 |ddv_scf|^2 =  3.823E-09

      iter #   3 total cpu time :   283.1 secs   av.it.:  11.2
      thresh= 6.183E-06 alpha_mix =  0.700 |ddv_scf|^2 =  5.528E-11

      iter #   4 total cpu time :   287.2 secs   av.it.:  11.3
      thresh= 7.435E-07 alpha_mix =  0.700 |ddv_scf|^2 =  5.547E-13

      iter #   5 total cpu time :   291.2 secs   av.it.:  11.3
      thresh= 7.448E-08 alpha_mix =  0.700 |ddv_scf|^2 =  1.079E-14

      iter #   6 total cpu time :   292.7 secs   av.it.:  11.5
      thresh= 1.039E-08 alpha_mix =  0.700 |ddv_scf|^2 =  7.348E-17

     End of self-consistent calculation

     Convergence has been achieved 
 
     Number of q in the star =    8
     List of q in the star:
          1  -0.333333333   0.333333333  -0.333333333
          2   0.333333333   0.333333333   0.333333333
          3  -0.333333333  -0.333333333  -0.333333333
          4   0.333333333  -0.333333333   0.333333333
          5   0.333333333  -0.333333333  -0.333333333
          6   0.333333333   0.333333333  -0.333333333
          7  -0.333333333  -0.333333333   0.333333333
          8  -0.333333333   0.333333333   0.333333333

     Diagonalizing the dynamical matrix

     q = (   -0.333333333   0.333333333  -0.333333333 ) 

 **************************************************************************
     freq (    1) =       3.044108 [THz] =     101.540500 [cm-1]
     freq (    2) =       3.044108 [THz] =     101.540500 [cm-1]
     freq (    3) =       8.747645 [THz] =     291.790016 [cm-1]
     freq (    4) =      13.857031 [THz] =     462.220798 [cm-1]
     freq (    5) =      14.763299 [THz] =     492.450651 [cm-1]
     freq (    6) =      14.763299 [THz] =     492.450651 [cm-1]
 **************************************************************************

     Mode symmetry, C_3v (3m)   point group:

     freq (   1-   2) =        101.5  [cm-1]   --> E    L_3           
     freq (   3-   3) =        291.8  [cm-1]   --> A_1  L_1           
     freq (   4-   4) =        462.2  [cm-1]   --> A_1  L_1           
     freq (   5-   6) =        492.5  [cm-1]   --> E    L_3           

     Calculation of q =    0.5000000  -0.5000000   0.5000000
 
     Parallelization info
     --------------------
     sticks:   dense  smooth     PW     G-vecs:    dense   smooth      PW
     Min         501     501    168                10436    10436    2007
     Max         502     502    169                10439    10439    2008
     Sum        1003    1003    337                20875    20875    4015
 
     Using Slab Decomposition
 

     Title: 
     default                                                                    


     bravais-lattice index     =            2
     lattice parameter (alat)  =      10.1899  a.u.
     unit-cell volume          =     264.5151 (a.u.)^3
     number of atoms/cell      =            2
     number of atomic types    =            1
     number of electrons       =         8.00
     number of Kohn-Sham states=            4
     kinetic-energy cutoff     =      70.0000  Ry
     charge density cutoff     =     280.0000  Ry
     Exchange-correlation= PW
                           (   1   4   0   0   0   0   0)

     celldm(1)=  10.189905  celldm(2)=   0.000000  celldm(3)=   0.000000
     celldm(4)=   0.000000  celldm(5)=   0.000000  celldm(6)=   0.000000

     crystal axes: (cart. coord. in units of alat)
               a(1) = (  -0.500000   0.000000   0.500000 )  
               a(2) = (   0.000000   0.500000   0.500000 )  
               a(3) = (  -0.500000   0.500000   0.000000 )  

     reciprocal axes: (cart. coord. in units 2 pi/alat)
               b(1) = ( -1.000000 -1.000000  1.000000 )  
               b(2) = (  1.000000  1.000000  1.000000 )  
               b(3) = ( -1.000000  1.000000 -1.000000 )  


     PseudoPot. # 1 for Si read from file:
     /fastscratch/tsievers/si_ph_benchmark_images//pseudos/Si.nc.UPF
     MD5 check sum: 9e2d726316af3d4752eea8ab0afbb951
     Pseudo is Norm-conserving + core correction, Zval =  4.0
     Generated using ONCVPSP code by D. R. Hamann
     Using radial grid of 1510 points,  6 beta functions with: 
                l(1) =   0
                l(2) =   0
                l(3) =   1
                l(4) =   1
                l(5) =   2
                l(6) =   2

     atomic species   valence    mass     pseudopotential
        Si             4.00    28.08550     Si( 1.00)

     48 Sym. Ops., with inversion, found



   Cartesian axes

     site n.     atom                  positions (alat units)
         1           Si  tau(   1) = (   0.0000000   0.0000000   0.0000000  )
         2           Si  tau(   2) = (  -0.2500000   0.2500000   0.2500000  )

     number of k points=   182

     Number of k-points >= 100: set verbosity='high' to print them.

     Dense  grid:    20875 G-vectors     FFT dimensions: (  40,  40,  40)

     Estimated max dynamical RAM per process >       6.42 MB

     Estimated total dynamical RAM >     488.26 MB

     The potential is recalculated from file :
     /fastscratch/tsievers/QE_TMP_DIR/_ph0/si_ph_bench_nimages_2_n_procs_152_0.save/charge-density

     Starting wfcs are    8 atomic wfcs

     Band Structure Calculation
     Davidson diagonalization with overlap

     ethr =  1.25E-10,  avg # of iterations = 12.9

     total cpu time spent up to now is        5.5 secs

     End of band structure calculation

     Number of k-points >= 100: set verbosity='high' to print the bands.

     highest occupied level (ev):     6.1106

     Writing config to output data dir /fastscratch/tsievers/QE_TMP_DIR/_ph0/si_ph_bench_nimages_2_n_procs_152_0.save/

     default                                                                    

     bravais-lattice index     =            2
     lattice parameter (alat)  =      10.1899  a.u.
     unit-cell volume          =     264.5151 (a.u.)^3
     number of atoms/cell      =            2
     number of atomic types    =            1
     kinetic-energy cut-off    =      70.0000  Ry
     charge density cut-off    =     280.0000  Ry
     convergence threshold     =      1.0E-15
     beta                      =       0.7000
     number of iterations used =            4
     Exchange-correlation= PW
                           (   1   4   0   0   0   0   0)


     celldm(1)=   10.18990  celldm(2)=    0.00000  celldm(3)=    0.00000
     celldm(4)=    0.00000  celldm(5)=    0.00000  celldm(6)=    0.00000

     crystal axes: (cart. coord. in units of alat)
               a(1) = ( -0.5000  0.0000  0.5000 )  
               a(2) = (  0.0000  0.5000  0.5000 )  
               a(3) = ( -0.5000  0.5000  0.0000 )  

     reciprocal axes: (cart. coord. in units 2 pi/alat)
               b(1) = ( -1.0000 -1.0000  1.0000 )  
               b(2) = (  1.0000  1.0000  1.0000 )  
               b(3) = ( -1.0000  1.0000 -1.0000 )  


     Atoms inside the unit cell: 

     Cartesian axes

     site n.  atom      mass           positions (alat units)
        1     Si  28.0855   tau(    1) = (    0.00000    0.00000    0.00000  )
        2     Si  28.0855   tau(    2) = (   -0.25000    0.25000    0.25000  )

     Computing dynamical matrix for 
                    q = (   0.5000000  -0.5000000   0.5000000 )
 
     13 Sym.Ops. (with q -> -q+G )


     G cutoff =  736.4420  (  10439 G-vectors)     FFT grid: ( 40, 40, 40)
     number of k points=   182

     PseudoPot. # 1 for Si read from file:
     /fastscratch/tsievers/si_ph_benchmark_images//pseudos/Si.nc.UPF
     MD5 check sum: 9e2d726316af3d4752eea8ab0afbb951
     Pseudo is Norm-conserving + core correction, Zval =  4.0
     Generated using ONCVPSP code by D. R. Hamann
     Using radial grid of 1510 points,  6 beta functions with: 
                l(1) =   0
                l(2) =   0
                l(3) =   1
                l(4) =   1
                l(5) =   2
                l(6) =   2


     Atomic displacements:
     There are    4 irreducible representations

     Representation     1      1 modes -  To be done

     Representation     2      1 modes -  To be done

     Representation     3      2 modes -  To be done

     Representation     4      2 modes -  To be done



     Alpha used in Ewald sum =   2.8000
     PHONON       :   2m15.88s CPU   4m59.51s WALL



     Representation #   1 mode #   1

     Self-consistent Calculation

      iter #   1 total cpu time :   300.2 secs   av.it.:   5.8
      thresh= 1.000E-02 alpha_mix =  0.700 |ddv_scf|^2 =  3.143E-06

      iter #   2 total cpu time :   301.7 secs   av.it.:   9.9
      thresh= 1.773E-04 alpha_mix =  0.700 |ddv_scf|^2 =  2.900E-06

      iter #   3 total cpu time :   303.3 secs   av.it.:   9.2
      thresh= 1.703E-04 alpha_mix =  0.700 |ddv_scf|^2 =  3.872E-10

      iter #   4 total cpu time :   305.2 secs   av.it.:  10.1
      thresh= 1.968E-06 alpha_mix =  0.700 |ddv_scf|^2 =  6.650E-12

      iter #   5 total cpu time :   306.6 secs   av.it.:   9.7
      thresh= 2.579E-07 alpha_mix =  0.700 |ddv_scf|^2 =  9.564E-14

      iter #   6 total cpu time :   309.0 secs   av.it.:   9.7
      thresh= 3.093E-08 alpha_mix =  0.700 |ddv_scf|^2 =  1.254E-15

      iter #   7 total cpu time :   309.7 secs   av.it.:   9.7
      thresh= 3.541E-09 alpha_mix =  0.700 |ddv_scf|^2 =  4.287E-18

     End of self-consistent calculation

     Convergence has been achieved 


     Representation #   2 mode #   2

     Self-consistent Calculation

      iter #   1 total cpu time :   312.3 secs   av.it.:   6.7
      thresh= 1.000E-02 alpha_mix =  0.700 |ddv_scf|^2 =  4.802E-05

      iter #   2 total cpu time :   312.9 secs   av.it.:  10.0
      thresh= 6.930E-04 alpha_mix =  0.700 |ddv_scf|^2 =  1.569E-04

      iter #   3 total cpu time :   314.9 secs   av.it.:   9.0
      thresh= 1.253E-03 alpha_mix =  0.700 |ddv_scf|^2 =  9.291E-09

      iter #   4 total cpu time :   316.9 secs   av.it.:   9.7
      thresh= 9.639E-06 alpha_mix =  0.700 |ddv_scf|^2 =  1.945E-10

      iter #   5 total cpu time :   318.2 secs   av.it.:  10.3
      thresh= 1.395E-06 alpha_mix =  0.700 |ddv_scf|^2 =  9.635E-12

      iter #   6 total cpu time :   319.9 secs   av.it.:  10.0
      thresh= 3.104E-07 alpha_mix =  0.700 |ddv_scf|^2 =  2.664E-13

      iter #   7 total cpu time :   321.0 secs   av.it.:   9.4
      thresh= 5.161E-08 alpha_mix =  0.700 |ddv_scf|^2 =  7.462E-17

     End of self-consistent calculation

     Convergence has been achieved 


     Representation #   3 modes #   3   4

     Self-consistent Calculation

      iter #   1 total cpu time :   325.0 secs   av.it.:   6.1
      thresh= 1.000E-02 alpha_mix =  0.700 |ddv_scf|^2 =  1.110E-07

      iter #   2 total cpu time :   330.0 secs   av.it.:  11.2
      thresh= 3.331E-05 alpha_mix =  0.700 |ddv_scf|^2 =  9.407E-09

      iter #   3 total cpu time :   334.2 secs   av.it.:  11.1
      thresh= 9.699E-06 alpha_mix =  0.700 |ddv_scf|^2 =  6.299E-11

      iter #   4 total cpu time :   339.0 secs   av.it.:  11.1
      thresh= 7.937E-07 alpha_mix =  0.700 |ddv_scf|^2 =  7.044E-14

      iter #   5 total cpu time :   339.6 secs   av.it.:  11.3
      thresh= 2.654E-08 alpha_mix =  0.700 |ddv_scf|^2 =  9.268E-16

     End of self-consistent calculation

     Convergence has been achieved 


     Representation #   4 modes #   5   6

     Self-consistent Calculation

      iter #   1 total cpu time :   345.0 secs   av.it.:   5.5
      thresh= 1.000E-02 alpha_mix =  0.700 |ddv_scf|^2 =  1.260E-08

      iter #   2 total cpu time :   347.9 secs   av.it.:  11.2
      thresh= 1.122E-05 alpha_mix =  0.700 |ddv_scf|^2 =  3.301E-10

      iter #   3 total cpu time :   352.2 secs   av.it.:  11.1
      thresh= 1.817E-06 alpha_mix =  0.700 |ddv_scf|^2 =  2.030E-11

      iter #   4 total cpu time :   356.2 secs   av.it.:  11.2
      thresh= 4.505E-07 alpha_mix =  0.700 |ddv_scf|^2 =  8.683E-14

      iter #   5 total cpu time :   360.7 secs   av.it.:  11.1
      thresh= 2.947E-08 alpha_mix =  0.700 |ddv_scf|^2 =  1.389E-15

      iter #   6 total cpu time :   362.1 secs   av.it.:  11.2
      thresh= 3.726E-09 alpha_mix =  0.700 |ddv_scf|^2 =  2.938E-18

     End of self-consistent calculation

     Convergence has been achieved 
 
     Number of q in the star =    4
     List of q in the star:
          1   0.500000000  -0.500000000   0.500000000
          2   0.500000000   0.500000000   0.500000000
          3  -0.500000000   0.500000000   0.500000000
          4   0.500000000   0.500000000  -0.500000000

     Diagonalizing the dynamical matrix

     q = (    0.500000000  -0.500000000   0.500000000 ) 

 **************************************************************************
     freq (    1) =       3.158329 [THz] =     105.350504 [cm-1]
     freq (    2) =       3.158329 [THz] =     105.350504 [cm-1]
     freq (    3) =      11.168981 [THz] =     372.557112 [cm-1]
     freq (    4) =      12.390710 [THz] =     413.309584 [cm-1]
     freq (    5) =      14.704262 [THz] =     490.481394 [cm-1]
     freq (    6) =      14.704262 [THz] =     490.481394 [cm-1]
 **************************************************************************

     Calculation of q =    0.0000000   0.3333333   0.0000000
 
     Parallelization info
     --------------------
     sticks:   dense  smooth     PW     G-vecs:    dense   smooth      PW
     Min         501     501    156                10436    10436    1859
     Max         502     502    157                10439    10439    1860
     Sum        1003    1003    313                20875    20875    3719
 
     Using Slab Decomposition
 

     Title: 
     default                                                                    


     bravais-lattice index     =            2
     lattice parameter (alat)  =      10.1899  a.u.
     unit-cell volume          =     264.5151 (a.u.)^3
     number of atoms/cell      =            2
     number of atomic types    =            1
     number of electrons       =         8.00
     number of Kohn-Sham states=            4
     kinetic-energy cutoff     =      70.0000  Ry
     charge density cutoff     =     280.0000  Ry
     Exchange-correlation= PW
                           (   1   4   0   0   0   0   0)

     celldm(1)=  10.189905  celldm(2)=   0.000000  celldm(3)=   0.000000
     celldm(4)=   0.000000  celldm(5)=   0.000000  celldm(6)=   0.000000

     crystal axes: (cart. coord. in units of alat)
               a(1) = (  -0.500000   0.000000   0.500000 )  
               a(2) = (   0.000000   0.500000   0.500000 )  
               a(3) = (  -0.500000   0.500000   0.000000 )  

     reciprocal axes: (cart. coord. in units 2 pi/alat)
               b(1) = ( -1.000000 -1.000000  1.000000 )  
               b(2) = (  1.000000  1.000000  1.000000 )  
               b(3) = ( -1.000000  1.000000 -1.000000 )  


     PseudoPot. # 1 for Si read from file:
     /fastscratch/tsievers/si_ph_benchmark_images//pseudos/Si.nc.UPF
     MD5 check sum: 9e2d726316af3d4752eea8ab0afbb951
     Pseudo is Norm-conserving + core correction, Zval =  4.0
     Generated using ONCVPSP code by D. R. Hamann
     Using radial grid of 1510 points,  6 beta functions with: 
                l(1) =   0
                l(2) =   0
                l(3) =   1
                l(4) =   1
                l(5) =   2
                l(6) =   2

     atomic species   valence    mass     pseudopotential
        Si             4.00    28.08550     Si( 1.00)

     48 Sym. Ops., with inversion, found



   Cartesian axes

     site n.     atom                  positions (alat units)
         1           Si  tau(   1) = (   0.0000000   0.0000000   0.0000000  )
         2           Si  tau(   2) = (  -0.2500000   0.2500000   0.2500000  )

     number of k points=   252

     Number of k-points >= 100: set verbosity='high' to print them.

     Dense  grid:    20875 G-vectors     FFT dimensions: (  40,  40,  40)

     Estimated max dynamical RAM per process >       6.40 MB

     Estimated total dynamical RAM >     486.25 MB

     The potential is recalculated from file :
     /fastscratch/tsievers/QE_TMP_DIR/_ph0/si_ph_bench_nimages_2_n_procs_152_0.save/charge-density

     Starting wfcs are    8 atomic wfcs

     Band Structure Calculation
     Davidson diagonalization with overlap

     ethr =  1.25E-10,  avg # of iterations = 12.8

     total cpu time spent up to now is        7.3 secs

     End of band structure calculation

     Number of k-points >= 100: set verbosity='high' to print the bands.

     highest occupied level (ev):     6.1106

     Writing config to output data dir /fastscratch/tsievers/QE_TMP_DIR/_ph0/si_ph_bench_nimages_2_n_procs_152_0.save/

     default                                                                    

     bravais-lattice index     =            2
     lattice parameter (alat)  =      10.1899  a.u.
     unit-cell volume          =     264.5151 (a.u.)^3
     number of atoms/cell      =            2
     number of atomic types    =            1
     kinetic-energy cut-off    =      70.0000  Ry
     charge density cut-off    =     280.0000  Ry
     convergence threshold     =      1.0E-15
     beta                      =       0.7000
     number of iterations used =            4
     Exchange-correlation= PW
                           (   1   4   0   0   0   0   0)


     celldm(1)=   10.18990  celldm(2)=    0.00000  celldm(3)=    0.00000
     celldm(4)=    0.00000  celldm(5)=    0.00000  celldm(6)=    0.00000

     crystal axes: (cart. coord. in units of alat)
               a(1) = ( -0.5000  0.0000  0.5000 )  
               a(2) = (  0.0000  0.5000  0.5000 )  
               a(3) = ( -0.5000  0.5000  0.0000 )  

     reciprocal axes: (cart. coord. in units 2 pi/alat)
               b(1) = ( -1.0000 -1.0000  1.0000 )  
               b(2) = (  1.0000  1.0000  1.0000 )  
               b(3) = ( -1.0000  1.0000 -1.0000 )  


     Atoms inside the unit cell: 

     Cartesian axes

     site n.  atom      mass           positions (alat units)
        1     Si  28.0855   tau(    1) = (    0.00000    0.00000    0.00000  )
        2     Si  28.0855   tau(    2) = (   -0.25000    0.25000    0.25000  )

     Computing dynamical matrix for 
                    q = (   0.0000000   0.3333333   0.0000000 )
 
      8 Sym.Ops. (no q -> -q+G )


     G cutoff =  736.4420  (  10439 G-vectors)     FFT grid: ( 40, 40, 40)
     number of k points=   252

     PseudoPot. # 1 for Si read from file:
     /fastscratch/tsievers/si_ph_benchmark_images//pseudos/Si.nc.UPF
     MD5 check sum: 9e2d726316af3d4752eea8ab0afbb951
     Pseudo is Norm-conserving + core correction, Zval =  4.0
     Generated using ONCVPSP code by D. R. Hamann
     Using radial grid of 1510 points,  6 beta functions with: 
                l(1) =   0
                l(2) =   0
                l(3) =   1
                l(4) =   1
                l(5) =   2
                l(6) =   2

     Mode symmetry, C_4v (4mm)  point group:


     Atomic displacements:
     There are    4 irreducible representations

     Representation     1      1 modes -  To be done

     Representation     2      1 modes -  To be done

     Representation     3      2 modes -  To be done

     Representation     4      2 modes -  To be done



     Alpha used in Ewald sum =   2.8000
     PHONON       :   2m51.16s CPU   6m 7.66s WALL



     Representation #   1 mode #   1

     Self-consistent Calculation

      iter #   1 total cpu time :   368.3 secs   av.it.:   6.8
      thresh= 1.000E-02 alpha_mix =  0.700 |ddv_scf|^2 =  2.084E-03

      iter #   2 total cpu time :   369.7 secs   av.it.:   9.1
      thresh= 4.566E-03 alpha_mix =  0.700 |ddv_scf|^2 =  6.356E-02

      iter #   3 total cpu time :   371.8 secs   av.it.:   8.0
      thresh= 1.000E-02 alpha_mix =  0.700 |ddv_scf|^2 =  5.845E-08

      iter #   4 total cpu time :   374.2 secs   av.it.:   9.0
      thresh= 2.418E-05 alpha_mix =  0.700 |ddv_scf|^2 =  2.789E-09

      iter #   5 total cpu time :   376.7 secs   av.it.:   8.6
      thresh= 5.281E-06 alpha_mix =  0.700 |ddv_scf|^2 =  9.064E-10

      iter #   6 total cpu time :   378.5 secs   av.it.:   8.1
      thresh= 3.011E-06 alpha_mix =  0.700 |ddv_scf|^2 =  1.237E-12

      iter #   7 total cpu time :   379.2 secs   av.it.:   8.4
      thresh= 1.112E-07 alpha_mix =  0.700 |ddv_scf|^2 =  2.765E-14

      iter #   8 total cpu time :   380.5 secs   av.it.:   8.3
      thresh= 1.663E-08 alpha_mix =  0.700 |ddv_scf|^2 =  3.524E-16

     End of self-consistent calculation

     Convergence has been achieved 


     Representation #   2 mode #   2

     Self-consistent Calculation

      iter #   1 total cpu time :   382.4 secs   av.it.:   5.9
      thresh= 1.000E-02 alpha_mix =  0.700 |ddv_scf|^2 =  3.182E-07

      iter #   2 total cpu time :   384.1 secs   av.it.:  10.4
      thresh= 5.641E-05 alpha_mix =  0.700 |ddv_scf|^2 =  5.146E-08

      iter #   3 total cpu time :   386.2 secs   av.it.:  10.2
      thresh= 2.269E-05 alpha_mix =  0.700 |ddv_scf|^2 =  6.507E-10

      iter #   4 total cpu time :   387.4 secs   av.it.:  10.4
      thresh= 2.551E-06 alpha_mix =  0.700 |ddv_scf|^2 =  2.703E-11

      iter #   5 total cpu time :   392.0 secs   av.it.:  10.3
      thresh= 5.199E-07 alpha_mix =  0.700 |ddv_scf|^2 =  6.159E-14

      iter #   6 total cpu time :   393.5 secs   av.it.:  10.4
      thresh= 2.482E-08 alpha_mix =  0.700 |ddv_scf|^2 =  1.229E-15

      iter #   7 total cpu time :   394.3 secs   av.it.:  10.4
      thresh= 3.505E-09 alpha_mix =  0.700 |ddv_scf|^2 =  2.874E-17

     End of self-consistent calculation

     Convergence has been achieved 


     Representation #   3 modes #   3   4

     Self-consistent Calculation

      iter #   1 total cpu time :   398.5 secs   av.it.:   6.0
      thresh= 1.000E-02 alpha_mix =  0.700 |ddv_scf|^2 =  5.759E-08

      iter #   2 total cpu time :   402.3 secs   av.it.:  11.3
      thresh= 2.400E-05 alpha_mix =  0.700 |ddv_scf|^2 =  5.250E-09

      iter #   3 total cpu time :   406.2 secs   av.it.:  11.1
      thresh= 7.245E-06 alpha_mix =  0.700 |ddv_scf|^2 =  6.118E-11

      iter #   4 total cpu time :   409.4 secs   av.it.:  11.3
      thresh= 7.822E-07 alpha_mix =  0.700 |ddv_scf|^2 =  6.882E-13

      iter #   5 total cpu time :   412.7 secs   av.it.:  11.2
      thresh= 8.296E-08 alpha_mix =  0.700 |ddv_scf|^2 =  1.142E-14

      iter #   6 total cpu time :   414.0 secs   av.it.:  11.5
      thresh= 1.069E-08 alpha_mix =  0.700 |ddv_scf|^2 =  4.653E-17

     End of self-consistent calculation

     Convergence has been achieved 


     Representation #   4 modes #   5   6

     Self-consistent Calculation

      iter #   1 total cpu time :   421.0 secs   av.it.:   6.0
      thresh= 1.000E-02 alpha_mix =  0.700 |ddv_scf|^2 =  7.592E-08

      iter #   2 total cpu time :   424.7 secs   av.it.:  11.2
      thresh= 2.755E-05 alpha_mix =  0.700 |ddv_scf|^2 =  7.159E-09

      iter #   3 total cpu time :   428.0 secs   av.it.:  11.0
      thresh= 8.461E-06 alpha_mix =  0.700 |ddv_scf|^2 =  6.477E-11

      iter #   4 total cpu time :   431.3 secs   av.it.:  11.2
      thresh= 8.048E-07 alpha_mix =  0.700 |ddv_scf|^2 =  4.404E-13

      iter #   5 total cpu time :   434.2 secs   av.it.:  11.1
      thresh= 6.636E-08 alpha_mix =  0.700 |ddv_scf|^2 =  1.046E-14

      iter #   6 total cpu time :   435.7 secs   av.it.:  11.5
      thresh= 1.023E-08 alpha_mix =  0.700 |ddv_scf|^2 =  4.428E-17

     End of self-consistent calculation

     Convergence has been achieved 
 
     Number of q in the star =    6
     List of q in the star:
          1   0.000000000   0.333333333   0.000000000
          2   0.333333333   0.000000000   0.000000000
          3   0.000000000   0.000000000   0.333333333
          4   0.000000000  -0.333333333   0.000000000
          5  -0.333333333   0.000000000   0.000000000
          6   0.000000000   0.000000000  -0.333333333

     Diagonalizing the dynamical matrix

     q = (    0.000000000   0.333333333   0.000000000 ) 

 **************************************************************************
     freq (    1) =       2.948455 [THz] =      98.349886 [cm-1]
     freq (    2) =       2.948455 [THz] =      98.349886 [cm-1]
     freq (    3) =       4.953327 [THz] =     165.225215 [cm-1]
     freq (    4) =      14.670277 [THz] =     489.347772 [cm-1]
     freq (    5) =      14.670277 [THz] =     489.347772 [cm-1]
     freq (    6) =      15.143124 [THz] =     505.120256 [cm-1]
 **************************************************************************

     Mode symmetry, C_4v (4mm)  point group:

     freq (   1-   2) =         98.3  [cm-1]   --> E    G_5 D_5       
     freq (   3-   3) =        165.2  [cm-1]   --> A_1  G_1 D_1       
     freq (   4-   5) =        489.3  [cm-1]   --> E    G_5 D_5       
     freq (   6-   6) =        505.1  [cm-1]   --> B_2  G_4 D_2'      

     Calculation of q =   -0.1666667   0.5000000  -0.1666667
 
     Parallelization info
     --------------------
     sticks:   dense  smooth     PW     G-vecs:    dense   smooth      PW
     Min         501     501    156                10436    10436    1917
     Max         502     502    157                10439    10439    1922
     Sum        1003    1003    313                20875    20875    3839
 
     Using Slab Decomposition
 

     Title: 
     default                                                                    


     bravais-lattice index     =            2
     lattice parameter (alat)  =      10.1899  a.u.
     unit-cell volume          =     264.5151 (a.u.)^3
     number of atoms/cell      =            2
     number of atomic types    =            1
     number of electrons       =         8.00
     number of Kohn-Sham states=            4
     kinetic-energy cutoff     =      70.0000  Ry
     charge density cutoff     =     280.0000  Ry
     Exchange-correlation= PW
                           (   1   4   0   0   0   0   0)

     celldm(1)=  10.189905  celldm(2)=   0.000000  celldm(3)=   0.000000
     celldm(4)=   0.000000  celldm(5)=   0.000000  celldm(6)=   0.000000

     crystal axes: (cart. coord. in units of alat)
               a(1) = (  -0.500000   0.000000   0.500000 )  
               a(2) = (   0.000000   0.500000   0.500000 )  
               a(3) = (  -0.500000   0.500000   0.000000 )  

     reciprocal axes: (cart. coord. in units 2 pi/alat)
               b(1) = ( -1.000000 -1.000000  1.000000 )  
               b(2) = (  1.000000  1.000000  1.000000 )  
               b(3) = ( -1.000000  1.000000 -1.000000 )  


     PseudoPot. # 1 for Si read from file:
     /fastscratch/tsievers/si_ph_benchmark_images//pseudos/Si.nc.UPF
     MD5 check sum: 9e2d726316af3d4752eea8ab0afbb951
     Pseudo is Norm-conserving + core correction, Zval =  4.0
     Generated using ONCVPSP code by D. R. Hamann
     Using radial grid of 1510 points,  6 beta functions with: 
                l(1) =   0
                l(2) =   0
                l(3) =   1
                l(4) =   1
                l(5) =   2
                l(6) =   2

     atomic species   valence    mass     pseudopotential
        Si             4.00    28.08550     Si( 1.00)

     48 Sym. Ops., with inversion, found



   Cartesian axes

     site n.     atom                  positions (alat units)
         1           Si  tau(   1) = (   0.0000000   0.0000000   0.0000000  )
         2           Si  tau(   2) = (  -0.2500000   0.2500000   0.2500000  )

     number of k points=   936

     Number of k-points >= 100: set verbosity='high' to print them.

     Dense  grid:    20875 G-vectors     FFT dimensions: (  40,  40,  40)

     Estimated max dynamical RAM per process >       6.41 MB

     Estimated total dynamical RAM >     487.11 MB

     The potential is recalculated from file :
     /fastscratch/tsievers/QE_TMP_DIR/_ph0/si_ph_bench_nimages_2_n_procs_152_0.save/charge-density

     Starting wfcs are    8 atomic wfcs

     Band Structure Calculation
     Davidson diagonalization with overlap

     ethr =  1.25E-10,  avg # of iterations = 12.8

     total cpu time spent up to now is       14.8 secs

     End of band structure calculation

     Number of k-points >= 100: set verbosity='high' to print the bands.

     highest occupied level (ev):     6.1106

     Writing config to output data dir /fastscratch/tsievers/QE_TMP_DIR/_ph0/si_ph_bench_nimages_2_n_procs_152_0.save/

     default                                                                    

     bravais-lattice index     =            2
     lattice parameter (alat)  =      10.1899  a.u.
     unit-cell volume          =     264.5151 (a.u.)^3
     number of atoms/cell      =            2
     number of atomic types    =            1
     kinetic-energy cut-off    =      70.0000  Ry
     charge density cut-off    =     280.0000  Ry
     convergence threshold     =      1.0E-15
     beta                      =       0.7000
     number of iterations used =            4
     Exchange-correlation= PW
                           (   1   4   0   0   0   0   0)


     celldm(1)=   10.18990  celldm(2)=    0.00000  celldm(3)=    0.00000
     celldm(4)=    0.00000  celldm(5)=    0.00000  celldm(6)=    0.00000

     crystal axes: (cart. coord. in units of alat)
               a(1) = ( -0.5000  0.0000  0.5000 )  
               a(2) = (  0.0000  0.5000  0.5000 )  
               a(3) = ( -0.5000  0.5000  0.0000 )  

     reciprocal axes: (cart. coord. in units 2 pi/alat)
               b(1) = ( -1.0000 -1.0000  1.0000 )  
               b(2) = (  1.0000  1.0000  1.0000 )  
               b(3) = ( -1.0000  1.0000 -1.0000 )  


     Atoms inside the unit cell: 

     Cartesian axes

     site n.  atom      mass           positions (alat units)
        1     Si  28.0855   tau(    1) = (    0.00000    0.00000    0.00000  )
        2     Si  28.0855   tau(    2) = (   -0.25000    0.25000    0.25000  )

     Computing dynamical matrix for 
                    q = (  -0.1666667   0.5000000  -0.1666667 )
 
      2 Sym.Ops. (no q -> -q+G )


     G cutoff =  736.4420  (  10439 G-vectors)     FFT grid: ( 40, 40, 40)
     number of k points=   936

     PseudoPot. # 1 for Si read from file:
     /fastscratch/tsievers/si_ph_benchmark_images//pseudos/Si.nc.UPF
     MD5 check sum: 9e2d726316af3d4752eea8ab0afbb951
     Pseudo is Norm-conserving + core correction, Zval =  4.0
     Generated using ONCVPSP code by D. R. Hamann
     Using radial grid of 1510 points,  6 beta functions with: 
                l(1) =   0
                l(2) =   0
                l(3) =   1
                l(4) =   1
                l(5) =   2
                l(6) =   2

     Mode symmetry, C_s (m)     point group:


     Atomic displacements:
     There are    6 irreducible representations

     Representation     1      1 modes -  To be done

     Representation     2      1 modes -  To be done

     Representation     3      1 modes -  To be done

     Representation     4      1 modes -  To be done

     Representation     5      1 modes -  To be done

     Representation     6      1 modes -  To be done



     Alpha used in Ewald sum =   2.8000
     PHONON       :   3m34.40s CPU   7m29.78s WALL



     Representation #   1 mode #   1

     Self-consistent Calculation

      iter #   1 total cpu time :   450.7 secs   av.it.:   6.7
      thresh= 1.000E-02 alpha_mix =  0.700 |ddv_scf|^2 =  1.192E-04

      iter #   2 total cpu time :   454.5 secs   av.it.:   9.8
      thresh= 1.092E-03 alpha_mix =  0.700 |ddv_scf|^2 =  1.301E-03

      iter #   3 total cpu time :   457.2 secs   av.it.:   8.3
      thresh= 3.606E-03 alpha_mix =  0.700 |ddv_scf|^2 =  1.137E-07

      iter #   4 total cpu time :   459.5 secs   av.it.:  10.3
      thresh= 3.372E-05 alpha_mix =  0.700 |ddv_scf|^2 =  4.976E-09

      iter #   5 total cpu time :   462.5 secs   av.it.:  10.1
      thresh= 7.054E-06 alpha_mix =  0.700 |ddv_scf|^2 =  5.308E-11

      iter #   6 total cpu time :   482.4 secs   av.it.:  10.5
      thresh= 7.285E-07 alpha_mix =  0.700 |ddv_scf|^2 =  6.538E-12

      iter #   7 total cpu time :   487.3 secs   av.it.:  10.3
      thresh= 2.557E-07 alpha_mix =  0.700 |ddv_scf|^2 =  4.490E-14

      iter #   8 total cpu time :   489.6 secs   av.it.:  10.4
      thresh= 2.119E-08 alpha_mix =  0.700 |ddv_scf|^2 =  9.301E-14

      iter #   9 total cpu time :   492.3 secs   av.it.:   8.8
      thresh= 3.050E-08 alpha_mix =  0.700 |ddv_scf|^2 =  2.123E-14

      iter #  10 total cpu time :   494.2 secs   av.it.:   9.0
      thresh= 1.457E-08 alpha_mix =  0.700 |ddv_scf|^2 =  2.106E-15

      iter #  11 total cpu time :   496.5 secs   av.it.:   9.2
      thresh= 4.589E-09 alpha_mix =  0.700 |ddv_scf|^2 =  6.264E-17

     End of self-consistent calculation

     Convergence has been achieved 


     Representation #   2 mode #   2

     Self-consistent Calculation

      iter #   1 total cpu time :   499.8 secs   av.it.:   6.5
      thresh= 1.000E-02 alpha_mix =  0.700 |ddv_scf|^2 =  7.780E-05

      iter #   2 total cpu time :   503.5 secs   av.it.:   9.9
      thresh= 8.820E-04 alpha_mix =  0.700 |ddv_scf|^2 =  8.352E-04

      iter #   3 total cpu time :   506.1 secs   av.it.:   8.3
      thresh= 2.890E-03 alpha_mix =  0.700 |ddv_scf|^2 =  7.659E-08

      iter #   4 total cpu time :   509.3 secs   av.it.:  10.3
      thresh= 2.767E-05 alpha_mix =  0.700 |ddv_scf|^2 =  3.951E-09

      iter #   5 total cpu time :   511.6 secs   av.it.:  10.1
      thresh= 6.286E-06 alpha_mix =  0.700 |ddv_scf|^2 =  9.334E-11

      iter #   6 total cpu time :   513.0 secs   av.it.:  10.1
      thresh= 9.661E-07 alpha_mix =  0.700 |ddv_scf|^2 =  6.337E-12

      iter #   7 total cpu time :   516.6 secs   av.it.:  10.3
      thresh= 2.517E-07 alpha_mix =  0.700 |ddv_scf|^2 =  2.993E-12

      iter #   8 total cpu time :   521.2 secs   av.it.:   9.5
      thresh= 1.730E-07 alpha_mix =  0.700 |ddv_scf|^2 =  6.982E-12

      iter #   9 total cpu time :   523.7 secs   av.it.:   8.7
      thresh= 2.642E-07 alpha_mix =  0.700 |ddv_scf|^2 =  2.622E-13

      iter #  10 total cpu time :   526.4 secs   av.it.:   9.2
      thresh= 5.121E-08 alpha_mix =  0.700 |ddv_scf|^2 =  6.677E-15

      iter #  11 total cpu time :   528.4 secs   av.it.:   9.9
      thresh= 8.171E-09 alpha_mix =  0.700 |ddv_scf|^2 =  3.429E-16

     End of self-consistent calculation

     Convergence has been achieved 


     Representation #   3 mode #   3

     Self-consistent Calculation

      iter #   1 total cpu time :   530.4 secs   av.it.:   6.4
      thresh= 1.000E-02 alpha_mix =  0.700 |ddv_scf|^2 =  5.668E-05

      iter #   2 total cpu time :   532.1 secs   av.it.:   9.9
      thresh= 7.529E-04 alpha_mix =  0.700 |ddv_scf|^2 =  6.227E-04

      iter #   3 total cpu time :   533.5 secs   av.it.:   8.3
      thresh= 2.495E-03 alpha_mix =  0.700 |ddv_scf|^2 =  8.762E-08

      iter #   4 total cpu time :   535.8 secs   av.it.:  10.2
      thresh= 2.960E-05 alpha_mix =  0.700 |ddv_scf|^2 =  2.884E-09

      iter #   5 total cpu time :   538.9 secs   av.it.:  10.1
      thresh= 5.371E-06 alpha_mix =  0.700 |ddv_scf|^2 =  8.883E-11

      iter #   6 total cpu time :   540.9 secs   av.it.:  10.4
      thresh= 9.425E-07 alpha_mix =  0.700 |ddv_scf|^2 =  3.533E-12

      iter #   7 total cpu time :   544.2 secs   av.it.:  10.6
      thresh= 1.880E-07 alpha_mix =  0.700 |ddv_scf|^2 =  3.257E-13

      iter #   8 total cpu time :   547.8 secs   av.it.:   9.8
      thresh= 5.707E-08 alpha_mix =  0.700 |ddv_scf|^2 =  1.644E-12

      iter #   9 total cpu time :   552.3 secs   av.it.:   8.6
      thresh= 1.282E-07 alpha_mix =  0.700 |ddv_scf|^2 =  7.191E-14

      iter #  10 total cpu time :   553.3 secs   av.it.:   8.8
      thresh= 2.682E-08 alpha_mix =  0.700 |ddv_scf|^2 =  9.023E-15

      iter #  11 total cpu time :   554.1 secs   av.it.:   9.3
      thresh= 9.499E-09 alpha_mix =  0.700 |ddv_scf|^2 =  1.469E-16

     End of self-consistent calculation

     Convergence has been achieved 


     Representation #   4 mode #   4

     Self-consistent Calculation

      iter #   1 total cpu time :   557.8 secs   av.it.:   6.2
      thresh= 1.000E-02 alpha_mix =  0.700 |ddv_scf|^2 =  1.528E-05

      iter #   2 total cpu time :   559.3 secs   av.it.:  10.0
      thresh= 3.909E-04 alpha_mix =  0.700 |ddv_scf|^2 =  1.576E-04

      iter #   3 total cpu time :   561.7 secs   av.it.:   8.3
      thresh= 1.255E-03 alpha_mix =  0.700 |ddv_scf|^2 =  6.502E-08

      iter #   4 total cpu time :   565.1 secs   av.it.:  10.2
      thresh= 2.550E-05 alpha_mix =  0.700 |ddv_scf|^2 =  1.660E-09

      iter #   5 total cpu time :   568.0 secs   av.it.:  10.2
      thresh= 4.075E-06 alpha_mix =  0.700 |ddv_scf|^2 =  8.266E-11

      iter #   6 total cpu time :   570.3 secs   av.it.:  10.5
      thresh= 9.092E-07 alpha_mix =  0.700 |ddv_scf|^2 =  7.246E-12

      iter #   7 total cpu time :   572.0 secs   av.it.:  10.2
      thresh= 2.692E-07 alpha_mix =  0.700 |ddv_scf|^2 =  1.056E-12

      iter #   8 total cpu time :   573.9 secs   av.it.:   9.9
      thresh= 1.028E-07 alpha_mix =  0.700 |ddv_scf|^2 =  5.008E-12

      iter #   9 total cpu time :   576.7 secs   av.it.:   8.5
      thresh= 2.238E-07 alpha_mix =  0.700 |ddv_scf|^2 =  8.560E-14

      iter #  10 total cpu time :   578.9 secs   av.it.:   9.4
      thresh= 2.926E-08 alpha_mix =  0.700 |ddv_scf|^2 =  1.066E-14

      iter #  11 total cpu time :   581.9 secs   av.it.:   9.5
      thresh= 1.033E-08 alpha_mix =  0.700 |ddv_scf|^2 =  2.807E-16

     End of self-consistent calculation

     Convergence has been achieved 


     Representation #   5 mode #   5

     Self-consistent Calculation

      iter #   1 total cpu time :   584.0 secs   av.it.:   6.0
      thresh= 1.000E-02 alpha_mix =  0.700 |ddv_scf|^2 =  3.840E-07

      iter #   2 total cpu time :   587.9 secs   av.it.:  10.4
      thresh= 6.196E-05 alpha_mix =  0.700 |ddv_scf|^2 =  5.269E-08

      iter #   3 total cpu time :   590.3 secs   av.it.:  10.1
      thresh= 2.295E-05 alpha_mix =  0.700 |ddv_scf|^2 =  2.835E-10

      iter #   4 total cpu time :   592.0 secs   av.it.:  10.3
      thresh= 1.684E-06 alpha_mix =  0.700 |ddv_scf|^2 =  1.615E-12

      iter #   5 total cpu time :   595.0 secs   av.it.:  10.3
      thresh= 1.271E-07 alpha_mix =  0.700 |ddv_scf|^2 =  3.400E-14

      iter #   6 total cpu time :   596.1 secs   av.it.:  10.6
      thresh= 1.844E-08 alpha_mix =  0.700 |ddv_scf|^2 =  2.086E-16

     End of self-consistent calculation

     Convergence has been achieved 


     Representation #   6 mode #   6

     Self-consistent Calculation

      iter #   1 total cpu time :   598.9 secs   av.it.:   6.0
      thresh= 1.000E-02 alpha_mix =  0.700 |ddv_scf|^2 =  3.840E-07

      iter #   2 total cpu time :   601.3 secs   av.it.:  10.4
      thresh= 6.196E-05 alpha_mix =  0.700 |ddv_scf|^2 =  5.269E-08

      iter #   3 total cpu time :   602.9 secs   av.it.:  10.1
      thresh= 2.295E-05 alpha_mix =  0.700 |ddv_scf|^2 =  2.835E-10

      iter #   4 total cpu time :   605.7 secs   av.it.:  10.3
      thresh= 1.684E-06 alpha_mix =  0.700 |ddv_scf|^2 =  1.615E-12

      iter #   5 total cpu time :   610.5 secs   av.it.:  10.3
      thresh= 1.271E-07 alpha_mix =  0.700 |ddv_scf|^2 =  3.400E-14

      iter #   6 total cpu time :   612.6 secs   av.it.:  10.6
      thresh= 1.844E-08 alpha_mix =  0.700 |ddv_scf|^2 =  2.086E-16

     End of self-consistent calculation

     Convergence has been achieved 
 
     Number of q in the star =   24
     List of q in the star:
          1  -0.166666667   0.500000000  -0.166666667
          2   0.166666667   0.500000000   0.166666667
          3  -0.166666667   0.500000000   0.166666667
          4   0.166666667   0.500000000  -0.166666667
          5   0.500000000  -0.166666667   0.166666667
          6   0.166666667  -0.166666667   0.500000000
          7  -0.166666667  -0.500000000  -0.166666667
          8   0.166666667  -0.500000000  -0.166666667
          9  -0.166666667  -0.500000000   0.166666667
         10   0.500000000  -0.166666667  -0.166666667
         11  -0.500000000  -0.166666667   0.166666667
         12   0.500000000   0.166666667   0.166666667
         13  -0.166666667   0.166666667  -0.500000000
         14  -0.166666667  -0.166666667   0.500000000
         15   0.166666667   0.166666667   0.500000000
         16   0.166666667  -0.166666667  -0.500000000
         17  -0.500000000   0.166666667  -0.166666667
         18  -0.500000000  -0.166666667  -0.166666667
         19   0.166666667  -0.500000000   0.166666667
         20   0.500000000   0.166666667  -0.166666667
         21   0.166666667   0.166666667  -0.500000000
         22  -0.166666667  -0.166666667  -0.500000000
         23  -0.500000000   0.166666667   0.166666667
         24  -0.166666667   0.166666667   0.500000000

     Diagonalizing the dynamical matrix

     q = (   -0.166666667   0.500000000  -0.166666667 ) 

 **************************************************************************
     freq (    1) =       3.594165 [THz] =     119.888428 [cm-1]
     freq (    2) =       4.477744 [THz] =     149.361479 [cm-1]
     freq (    3) =       7.460527 [THz] =     248.856393 [cm-1]
     freq (    4) =      13.865473 [THz] =     462.502409 [cm-1]
     freq (    5) =      14.341225 [THz] =     478.371783 [cm-1]
     freq (    6) =      14.653514 [THz] =     488.788613 [cm-1]
 **************************************************************************

     Mode symmetry, C_s (m)     point group:

     freq (   1-   1) =        119.9  [cm-1]   --> A''                
     freq (   2-   2) =        149.4  [cm-1]   --> A'                 
     freq (   3-   3) =        248.9  [cm-1]   --> A'                 
     freq (   4-   4) =        462.5  [cm-1]   --> A'                 
     freq (   5-   5) =        478.4  [cm-1]   --> A''                
     freq (   6-   6) =        488.8  [cm-1]   --> A'                 

     Calculation of q =    0.6666667  -0.3333333   0.6666667
 
     Parallelization info
     --------------------
     sticks:   dense  smooth     PW     G-vecs:    dense   smooth      PW
     Min         501     501    174                10436    10436    2139
     Max         502     502    175                10439    10439    2140
     Sum        1003    1003    349                20875    20875    4279
 
     Using Slab Decomposition
 

     Title: 
     default                                                                    


     bravais-lattice index     =            2
     lattice parameter (alat)  =      10.1899  a.u.
     unit-cell volume          =     264.5151 (a.u.)^3
     number of atoms/cell      =            2
     number of atomic types    =            1
     number of electrons       =         8.00
     number of Kohn-Sham states=            4
     kinetic-energy cutoff     =      70.0000  Ry
     charge density cutoff     =     280.0000  Ry
     Exchange-correlation= PW
                           (   1   4   0   0   0   0   0)

[...]

      iter #   5 total cpu time :   884.1 secs   av.it.:  10.4
      thresh= 1.397E-07 alpha_mix =  0.700 |ddv_scf|^2 =  3.895E-14

      iter #   6 total cpu time :   884.9 secs   av.it.:  10.6
      thresh= 1.973E-08 alpha_mix =  0.700 |ddv_scf|^2 =  2.547E-16

     End of self-consistent calculation

     Convergence has been achieved 


     Representation #   6 mode #   6

     Self-consistent Calculation

      iter #   1 total cpu time :   886.9 secs   av.it.:   6.0
      thresh= 1.000E-02 alpha_mix =  0.700 |ddv_scf|^2 =  2.719E-07

      iter #   2 total cpu time :   888.3 secs   av.it.:  10.5
      thresh= 5.214E-05 alpha_mix =  0.700 |ddv_scf|^2 =  2.627E-08

      iter #   3 total cpu time :   889.7 secs   av.it.:  10.2
      thresh= 1.621E-05 alpha_mix =  0.700 |ddv_scf|^2 =  2.490E-10

      iter #   4 total cpu time :   890.9 secs   av.it.:  10.4
      thresh= 1.578E-06 alpha_mix =  0.700 |ddv_scf|^2 =  1.953E-12

      iter #   5 total cpu time :   892.4 secs   av.it.:  10.4
      thresh= 1.397E-07 alpha_mix =  0.700 |ddv_scf|^2 =  3.894E-14

      iter #   6 total cpu time :   893.9 secs   av.it.:  10.6
      thresh= 1.973E-08 alpha_mix =  0.700 |ddv_scf|^2 =  2.547E-16

     End of self-consistent calculation

     Convergence has been achieved 
 
     Number of q in the star =   24
     List of q in the star:
          1   0.500000000  -0.166666667   0.500000000
          2  -0.500000000  -0.166666667  -0.500000000
          3   0.500000000  -0.166666667  -0.500000000
          4  -0.500000000  -0.166666667   0.500000000
          5  -0.166666667   0.500000000  -0.500000000
          6  -0.500000000   0.500000000  -0.166666667
          7   0.500000000   0.166666667   0.500000000
          8  -0.500000000   0.166666667   0.500000000
          9   0.500000000   0.166666667  -0.500000000
         10  -0.166666667   0.500000000   0.500000000
         11   0.166666667   0.500000000  -0.500000000
         12  -0.166666667  -0.500000000  -0.500000000
         13   0.500000000  -0.500000000   0.166666667
         14   0.500000000   0.500000000  -0.166666667
         15  -0.500000000  -0.500000000  -0.166666667
         16  -0.500000000   0.500000000   0.166666667
         17   0.166666667  -0.500000000   0.500000000
         18   0.166666667   0.500000000   0.500000000
         19  -0.500000000   0.166666667  -0.500000000
         20  -0.166666667  -0.500000000   0.500000000
         21  -0.500000000  -0.500000000   0.166666667
         22   0.500000000   0.500000000   0.166666667
         23   0.166666667  -0.500000000  -0.500000000
         24   0.500000000  -0.500000000  -0.166666667

     Diagonalizing the dynamical matrix

     q = (    0.500000000  -0.166666667   0.500000000 ) 

 **************************************************************************
     freq (    1) =       3.831679 [THz] =     127.811047 [cm-1]
     freq (    2) =       5.057798 [THz] =     168.709979 [cm-1]
     freq (    3) =       9.109270 [THz] =     303.852530 [cm-1]
     freq (    4) =      12.612502 [THz] =     420.707776 [cm-1]
     freq (    5) =      14.335925 [THz] =     478.194970 [cm-1]
     freq (    6) =      14.664746 [THz] =     489.163272 [cm-1]
 **************************************************************************

     Mode symmetry, C_s (m)     point group:

     freq (   1-   1) =        127.8  [cm-1]   --> A''                
     freq (   2-   2) =        168.7  [cm-1]   --> A'                 
     freq (   3-   3) =        303.9  [cm-1]   --> A'                 
     freq (   4-   4) =        420.7  [cm-1]   --> A'                 
     freq (   5-   5) =        478.2  [cm-1]   --> A''                
     freq (   6-   6) =        489.2  [cm-1]   --> A'                 

     Calculation of q =    0.3333333   0.0000000   0.3333333
 
     Parallelization info
     --------------------
     sticks:   dense  smooth     PW     G-vecs:    dense   smooth      PW
     Min         501     501    156                10436    10436    1917
     Max         502     502    157                10439    10439    1922
     Sum        1003    1003    313                20875    20875    3839
 
     Using Slab Decomposition
 

     Title: 
     default                                                                    


     bravais-lattice index     =            2
     lattice parameter (alat)  =      10.1899  a.u.
     unit-cell volume          =     264.5151 (a.u.)^3
     number of atoms/cell      =            2
     number of atomic types    =            1
     number of electrons       =         8.00
     number of Kohn-Sham states=            4
     kinetic-energy cutoff     =      70.0000  Ry
     charge density cutoff     =     280.0000  Ry
     Exchange-correlation= PW
                           (   1   4   0   0   0   0   0)

     celldm(1)=  10.189905  celldm(2)=   0.000000  celldm(3)=   0.000000
     celldm(4)=   0.000000  celldm(5)=   0.000000  celldm(6)=   0.000000

     crystal axes: (cart. coord. in units of alat)
               a(1) = (  -0.500000   0.000000   0.500000 )  
               a(2) = (   0.000000   0.500000   0.500000 )  
               a(3) = (  -0.500000   0.500000   0.000000 )  

     reciprocal axes: (cart. coord. in units 2 pi/alat)
               b(1) = ( -1.000000 -1.000000  1.000000 )  
               b(2) = (  1.000000  1.000000  1.000000 )  
               b(3) = ( -1.000000  1.000000 -1.000000 )  


     PseudoPot. # 1 for Si read from file:
     /fastscratch/tsievers/si_ph_benchmark_images//pseudos/Si.nc.UPF
     MD5 check sum: 9e2d726316af3d4752eea8ab0afbb951
     Pseudo is Norm-conserving + core correction, Zval =  4.0
     Generated using ONCVPSP code by D. R. Hamann
     Using radial grid of 1510 points,  6 beta functions with: 
                l(1) =   0
                l(2) =   0
                l(3) =   1
                l(4) =   1
                l(5) =   2
                l(6) =   2

     atomic species   valence    mass     pseudopotential
        Si             4.00    28.08550     Si( 1.00)

     48 Sym. Ops., with inversion, found



   Cartesian axes

     site n.     atom                  positions (alat units)
         1           Si  tau(   1) = (   0.0000000   0.0000000   0.0000000  )
         2           Si  tau(   2) = (  -0.2500000   0.2500000   0.2500000  )

     number of k points=   468

     Number of k-points >= 100: set verbosity='high' to print them.

     Dense  grid:    20875 G-vectors     FFT dimensions: (  40,  40,  40)

     Estimated max dynamical RAM per process >       6.41 MB

     Estimated total dynamical RAM >     486.80 MB

     The potential is recalculated from file :
     /fastscratch/tsievers/QE_TMP_DIR/_ph0/si_ph_bench_nimages_2_n_procs_152_0.save/charge-density

     Starting wfcs are    8 atomic wfcs

     Band Structure Calculation
     Davidson diagonalization with overlap

     ethr =  1.25E-10,  avg # of iterations = 12.8

     total cpu time spent up to now is       23.4 secs

     End of band structure calculation

     Number of k-points >= 100: set verbosity='high' to print the bands.

     highest occupied level (ev):     6.1106

     Writing config to output data dir /fastscratch/tsievers/QE_TMP_DIR/_ph0/si_ph_bench_nimages_2_n_procs_152_0.save/

     default                                                                    

     bravais-lattice index     =            2
     lattice parameter (alat)  =      10.1899  a.u.
     unit-cell volume          =     264.5151 (a.u.)^3
     number of atoms/cell      =            2
     number of atomic types    =            1
     kinetic-energy cut-off    =      70.0000  Ry
     charge density cut-off    =     280.0000  Ry
     convergence threshold     =      1.0E-15
     beta                      =       0.7000
     number of iterations used =            4
     Exchange-correlation= PW
                           (   1   4   0   0   0   0   0)


     celldm(1)=   10.18990  celldm(2)=    0.00000  celldm(3)=    0.00000
     celldm(4)=    0.00000  celldm(5)=    0.00000  celldm(6)=    0.00000

     crystal axes: (cart. coord. in units of alat)
               a(1) = ( -0.5000  0.0000  0.5000 )  
               a(2) = (  0.0000  0.5000  0.5000 )  
               a(3) = ( -0.5000  0.5000  0.0000 )  

     reciprocal axes: (cart. coord. in units 2 pi/alat)
               b(1) = ( -1.0000 -1.0000  1.0000 )  
               b(2) = (  1.0000  1.0000  1.0000 )  
               b(3) = ( -1.0000  1.0000 -1.0000 )  


     Atoms inside the unit cell: 

     Cartesian axes

     site n.  atom      mass           positions (alat units)
        1     Si  28.0855   tau(    1) = (    0.00000    0.00000    0.00000  )
        2     Si  28.0855   tau(    2) = (   -0.25000    0.25000    0.25000  )

     Computing dynamical matrix for 
                    q = (   0.3333333   0.0000000   0.3333333 )
 
      4 Sym.Ops. (no q -> -q+G )


     G cutoff =  736.4420  (  10439 G-vectors)     FFT grid: ( 40, 40, 40)
     number of k points=   468

     PseudoPot. # 1 for Si read from file:
     /fastscratch/tsievers/si_ph_benchmark_images//pseudos/Si.nc.UPF
     MD5 check sum: 9e2d726316af3d4752eea8ab0afbb951
     Pseudo is Norm-conserving + core correction, Zval =  4.0
     Generated using ONCVPSP code by D. R. Hamann
     Using radial grid of 1510 points,  6 beta functions with: 
                l(1) =   0
                l(2) =   0
                l(3) =   1
                l(4) =   1
                l(5) =   2
                l(6) =   2

     Mode symmetry, C_2v (mm2)  point group:


     Atomic displacements:
     There are    6 irreducible representations

     Representation     1      1 modes -  To be done

     Representation     2      1 modes -  To be done

     Representation     3      1 modes -  To be done

     Representation     4      1 modes -  To be done

     Representation     5      1 modes -  Not done in this run

     Representation     6      1 modes -  Not done in this run

     Compute atoms:     1,    2,



     Alpha used in Ewald sum =   2.8000
     PHONON       :   7m51.87s CPU  14m57.08s WALL



     Representation #   1 mode #   1

     Self-consistent Calculation

      iter #   1 total cpu time :   897.8 secs   av.it.:   6.3
      thresh= 1.000E-02 alpha_mix =  0.700 |ddv_scf|^2 =  5.670E-05

      iter #   2 total cpu time :   899.0 secs   av.it.:   9.7
      thresh= 7.530E-04 alpha_mix =  0.700 |ddv_scf|^2 =  8.782E-04

      iter #   3 total cpu time :   900.4 secs   av.it.:   7.9
      thresh= 2.963E-03 alpha_mix =  0.700 |ddv_scf|^2 =  6.570E-08

      iter #   4 total cpu time :   901.5 secs   av.it.:  10.0
      thresh= 2.563E-05 alpha_mix =  0.700 |ddv_scf|^2 =  1.981E-09

      iter #   5 total cpu time :   902.7 secs   av.it.:   9.8
      thresh= 4.451E-06 alpha_mix =  0.700 |ddv_scf|^2 =  7.387E-11

      iter #   6 total cpu time :   903.9 secs   av.it.:   9.6
      thresh= 8.595E-07 alpha_mix =  0.700 |ddv_scf|^2 =  6.473E-11

      iter #   7 total cpu time :   905.0 secs   av.it.:   8.0
      thresh= 8.045E-07 alpha_mix =  0.700 |ddv_scf|^2 =  1.342E-13

      iter #   8 total cpu time :   906.5 secs   av.it.:   9.9
      thresh= 3.663E-08 alpha_mix =  0.700 |ddv_scf|^2 =  9.381E-15

      iter #   9 total cpu time :   907.8 secs   av.it.:   9.5
      thresh= 9.686E-09 alpha_mix =  0.700 |ddv_scf|^2 =  1.379E-15

      iter #  10 total cpu time :   908.3 secs   av.it.:   9.3
      thresh= 3.713E-09 alpha_mix =  0.700 |ddv_scf|^2 =  1.438E-16

     End of self-consistent calculation

     Convergence has been achieved 


     Representation #   2 mode #   2

     Self-consistent Calculation

      iter #   1 total cpu time :   909.5 secs   av.it.:   6.9
      thresh= 1.000E-02 alpha_mix =  0.700 |ddv_scf|^2 =  4.939E-04

      iter #   2 total cpu time :   910.8 secs   av.it.:   9.6
      thresh= 2.222E-03 alpha_mix =  0.700 |ddv_scf|^2 =  7.892E-03

      iter #   3 total cpu time :   911.9 secs   av.it.:   7.9
      thresh= 8.884E-03 alpha_mix =  0.700 |ddv_scf|^2 =  1.369E-07

      iter #   4 total cpu time :   913.0 secs   av.it.:   9.8
      thresh= 3.700E-05 alpha_mix =  0.700 |ddv_scf|^2 =  1.072E-08

      iter #   5 total cpu time :   914.5 secs   av.it.:   9.7
      thresh= 1.035E-05 alpha_mix =  0.700 |ddv_scf|^2 =  9.178E-11

      iter #   6 total cpu time :   915.9 secs   av.it.:   9.5
      thresh= 9.580E-07 alpha_mix =  0.700 |ddv_scf|^2 =  3.478E-11

      iter #   7 total cpu time :   917.0 secs   av.it.:   8.0
      thresh= 5.898E-07 alpha_mix =  0.700 |ddv_scf|^2 =  6.819E-13

      iter #   8 total cpu time :   918.7 secs   av.it.:   9.0
      thresh= 8.258E-08 alpha_mix =  0.700 |ddv_scf|^2 =  3.583E-14

      iter #   9 total cpu time :   919.3 secs   av.it.:   8.7
      thresh= 1.893E-08 alpha_mix =  0.700 |ddv_scf|^2 =  1.998E-16

     End of self-consistent calculation

     Convergence has been achieved 


     Representation #   3 mode #   3

     Self-consistent Calculation

      iter #   1 total cpu time :   920.5 secs   av.it.:   5.9
      thresh= 1.000E-02 alpha_mix =  0.700 |ddv_scf|^2 =  2.786E-07

      iter #   2 total cpu time :   921.6 secs   av.it.:  10.3
      thresh= 5.278E-05 alpha_mix =  0.700 |ddv_scf|^2 =  1.505E-08

      iter #   3 total cpu time :   922.6 secs   av.it.:  10.2
      thresh= 1.227E-05 alpha_mix =  0.700 |ddv_scf|^2 =  1.966E-10

      iter #   4 total cpu time :   923.9 secs   av.it.:  10.1
      thresh= 1.402E-06 alpha_mix =  0.700 |ddv_scf|^2 =  4.654E-13

      iter #   5 total cpu time :   925.1 secs   av.it.:  10.3
      thresh= 6.822E-08 alpha_mix =  0.700 |ddv_scf|^2 =  7.090E-15

      iter #   6 total cpu time :   925.6 secs   av.it.:  10.4
      thresh= 8.420E-09 alpha_mix =  0.700 |ddv_scf|^2 =  5.891E-17

     End of self-consistent calculation

     Convergence has been achieved 


     Representation #   4 mode #   4

     Self-consistent Calculation

      iter #   1 total cpu time :   927.1 secs   av.it.:   5.7
      thresh= 1.000E-02 alpha_mix =  0.700 |ddv_scf|^2 =  6.220E-08

      iter #   2 total cpu time :   928.1 secs   av.it.:  10.3
      thresh= 2.494E-05 alpha_mix =  0.700 |ddv_scf|^2 =  1.687E-09

      iter #   3 total cpu time :   929.4 secs   av.it.:  10.1
      thresh= 4.108E-06 alpha_mix =  0.700 |ddv_scf|^2 =  1.042E-10

      iter #   4 total cpu time :   930.6 secs   av.it.:  10.2
      thresh= 1.021E-06 alpha_mix =  0.700 |ddv_scf|^2 =  3.781E-13

      iter #   5 total cpu time :   931.2 secs   av.it.:  10.3
      thresh= 6.149E-08 alpha_mix =  0.700 |ddv_scf|^2 =  8.548E-16

     End of self-consistent calculation

     Convergence has been achieved 

     Not diagonalizing because representation    5 is not done
 
     init_run     :      0.68s CPU      0.75s WALL (       8 calls)
     electrons    :     14.28s CPU     15.85s WALL (       8 calls)

     Called by init_run:
     wfcinit      :      0.00s CPU      0.04s WALL (       8 calls)
     potinit      :      0.03s CPU      0.04s WALL (       8 calls)
     hinit0       :      0.19s CPU      0.19s WALL (       8 calls)

     Called by electrons:
     c_bands      :     14.27s CPU     15.85s WALL (       8 calls)
     v_of_rho     :      0.03s CPU      0.03s WALL (       9 calls)

     Called by c_bands:
     init_us_2    :      1.72s CPU      1.79s WALL (    3817 calls)
     init_us_2:cp :      1.71s CPU      1.78s WALL (    3817 calls)
     cegterg      :      5.38s CPU      5.47s WALL (     126 calls)

     Called by *egterg:
     cdiaghg      :      0.15s CPU      0.16s WALL (    1877 calls)
     h_psi        :     98.59s CPU    100.32s WALL (   39006 calls)
     g_psi        :      0.05s CPU      0.06s WALL (    1751 calls)

     Called by h_psi:
     h_psi:calbec :      7.11s CPU      7.23s WALL (   39006 calls)
     vloc_psi     :     84.43s CPU     85.92s WALL (   39006 calls)
     add_vuspsi   :      6.41s CPU      6.54s WALL (   39006 calls)

     General routines
     calbec       :     12.95s CPU     13.21s WALL (   78132 calls)
     fft          :      0.92s CPU      0.94s WALL (    2043 calls)
     ffts         :      0.38s CPU      0.40s WALL (     616 calls)
     fftw         :     86.38s CPU     88.12s WALL (  327412 calls)
     davcio       :      0.99s CPU      7.82s WALL (   18765 calls)
 
     Parallel routines
 
     PHONON       :   8m12.98s CPU  15m32.45s WALL

     INITIALIZATION: 
     phq_setup    :      0.07s CPU      1.38s WALL (       9 calls)
     phq_init     :      5.66s CPU      7.07s WALL (       9 calls)
 
     phq_init     :      5.66s CPU      7.07s WALL (       9 calls)
     set_drhoc    :      2.59s CPU      2.59s WALL (      27 calls)
     init_vloc    :      0.02s CPU      0.02s WALL (       9 calls)
     init_us_1    :      0.07s CPU      0.07s WALL (       9 calls)
     init_us_2    :      1.72s CPU      1.79s WALL (    3817 calls)
 
     DYNAMICAL MATRIX:
     dynmat0      :      3.63s CPU      5.03s WALL (       9 calls)
     phqscf       :    460.89s CPU    870.31s WALL (       9 calls)
     dynmatrix    :      2.16s CPU      2.58s WALL (       9 calls)
 
     phqscf       :    460.89s CPU    870.31s WALL (       9 calls)
     solve_linter :    460.20s CPU    839.65s WALL (      40 calls)
     drhodv       :      0.61s CPU      0.63s WALL (      40 calls)
 
     dynmat0      :      3.63s CPU      5.03s WALL (       9 calls)
     dynmat_us    :      1.75s CPU      1.76s WALL (       9 calls)
     d2ionq       :      0.02s CPU      0.02s WALL (       9 calls)
     dynmatcc     :      1.73s CPU      1.73s WALL (       9 calls)
 
     dynmat_us    :      1.75s CPU      1.76s WALL (       9 calls)
 
     phqscf       :    460.89s CPU    870.31s WALL (       9 calls)
     solve_linter :    460.20s CPU    839.65s WALL (      40 calls)
 
     solve_linter :    460.20s CPU    839.65s WALL (      40 calls)
     dvqpsi_us    :      1.53s CPU      1.60s WALL (     376 calls)
     sth_kernel   :    132.94s CPU    136.05s WALL (     330 calls)
     apply_dpot_b :      7.06s CPU      7.34s WALL (    2751 calls)
     ortho        :      0.28s CPU      0.29s WALL (    3127 calls)
     cgsolve      :    105.89s CPU    107.75s WALL (    3127 calls)
     incdrhoscf   :      8.32s CPU      8.56s WALL (    3124 calls)
     dv_of_drho   :      0.78s CPU      0.79s WALL (     407 calls)
     mix_pot      :      4.43s CPU    262.03s WALL (     330 calls)
     psymdvscf    :      5.62s CPU      5.68s WALL (     325 calls)
 
     dvqpsi_us    :      1.53s CPU      1.60s WALL (     376 calls)
     dvqpsi_us_on :      0.27s CPU      0.28s WALL (     376 calls)
 
     cgsolve      :    105.89s CPU    107.75s WALL (    3127 calls)
     ch_psi       :    103.01s CPU    104.79s WALL (   37003 calls)
 
     ch_psi       :    103.01s CPU    104.79s WALL (   37003 calls)
     h_psi        :     98.59s CPU    100.32s WALL (   39006 calls)
     last         :      8.71s CPU      8.87s WALL (   37003 calls)
 
     h_psi        :     98.59s CPU    100.32s WALL (   39006 calls)
     add_vuspsi   :      6.41s CPU      6.54s WALL (   39006 calls)
 
     incdrhoscf   :      8.32s CPU      8.56s WALL (    3124 calls)
 
 
      General routines
     calbec       :     12.95s CPU     13.21s WALL (   78132 calls)
     fft          :      0.92s CPU      0.94s WALL (    2043 calls)
     ffts         :      0.38s CPU      0.40s WALL (     616 calls)
     fftw         :     86.38s CPU     88.12s WALL (  327412 calls)
     davcio       :      0.99s CPU      7.82s WALL (   18765 calls)
     write_rec    :      4.11s CPU    163.10s WALL (     370 calls)
 
 
     PHONON       :   8m12.98s CPU  15m32.45s WALL

 
   This run was terminated on:   1:51:30   5Jun2022            

=------------------------------------------------------------------------------=
   JOB DONE.
=------------------------------------------------------------------------------=
