Module for intel-oneAPI 2021.4 loaded.
 
:: initializing oneAPI environment ...
   2650652: BASH_VERSION = 4.4.20(1)-release
:: advisor -- latest
:: ccl -- latest
:: clck -- latest
:: compiler -- latest
:: dal -- latest
:: debugger -- latest
:: dev-utilities -- latest
:: dnnl -- latest
:: dpcpp-ct -- latest
:: dpl -- latest
:: inspector -- latest
:: intelpython -- latest
:: ipp -- latest
:: ippcp -- latest
:: ipp -- latest
:: itac -- latest
:: LPOT -- latest
:: mkl -- latest
:: modelzoo -- latest
:: mpi -- latest
:: pytorch -- latest
:: tbb -- latest
:: tensorflow -- latest
:: vpl -- latest
:: vtune -- latest
:: oneAPI environment initialized ::
 

     Program PWSCF v.7.0 starts on  3May2022 at 20:54:34 

     This program is part of the open-source Quantum ESPRESSO suite
     for quantum simulation of materials; please cite
         "P. Giannozzi et al., J. Phys.:Condens. Matter 21 395502 (2009);
         "P. Giannozzi et al., J. Phys.:Condens. Matter 29 465901 (2017);
         "P. Giannozzi et al., J. Chem. Phys. 152 154105 (2020);
          URL http://www.quantum-espresso.org", 
     in publications or presentations arising from this work. More details at
     http://www.quantum-espresso.org/quote

     Parallel version (MPI), running on    36 processors

     MPI processes distributed on     2 nodes
     K-points division:     npool     =       2
     R & G space division:  proc/nbgrp/npool/nimage =      18
     31473 MiB available memory on the printing compute node when the environment starts
 
     Reading input from in_files/si_ph_bench_poolsize_18_n_procs_36_0.scf

     Current dimensions of program PWSCF are:
     Max number of different atomic species (ntypx) = 10
     Max number of k-points (npk) =  40000
     Max angular momentum in pseudopotentials (lmaxx) =  4

     Subspace diagonalization in iterative solution of the eigenvalue problem:
     one sub-group per band group will be used
     scalapack distributed-memory algorithm (size of sub-group:  3*  3 procs)

 
     Parallelization info
     --------------------
     sticks:   dense  smooth     PW     G-vecs:    dense   smooth      PW
     Min          55      55     16                 1158     1158     191
     Max          56      56     17                 1161     1161     195
     Sum        1003    1003    301                20875    20875    3479
 
     Using Slab Decomposition
 


     bravais-lattice index     =            2
     lattice parameter (alat)  =      10.1899  a.u.
     unit-cell volume          =     264.5151 (a.u.)^3
     number of atoms/cell      =            2
     number of atomic types    =            1
     number of electrons       =         8.00
     number of Kohn-Sham states=            4
     kinetic-energy cutoff     =      70.0000  Ry
     charge density cutoff     =     280.0000  Ry
     scf convergence threshold =      1.0E-10
     mixing beta               =       0.7000
     number of iterations used =            8  plain     mixing
     Exchange-correlation= SLA  PW   NOGX NOGC
                           (   1   4   0   0   0   0   0)

     celldm(1)=  10.189905  celldm(2)=   0.000000  celldm(3)=   0.000000
     celldm(4)=   0.000000  celldm(5)=   0.000000  celldm(6)=   0.000000

     crystal axes: (cart. coord. in units of alat)
               a(1) = (  -0.500000   0.000000   0.500000 )  
               a(2) = (   0.000000   0.500000   0.500000 )  
               a(3) = (  -0.500000   0.500000   0.000000 )  

     reciprocal axes: (cart. coord. in units 2 pi/alat)
               b(1) = ( -1.000000 -1.000000  1.000000 )  
               b(2) = (  1.000000  1.000000  1.000000 )  
               b(3) = ( -1.000000  1.000000 -1.000000 )  


     PseudoPot. # 1 for Si read from file:
     ./pseudos/Si.nc.UPF
     MD5 check sum: 9e2d726316af3d4752eea8ab0afbb951
     Pseudo is Norm-conserving + core correction, Zval =  4.0
     Generated using ONCVPSP code by D. R. Hamann
     Using radial grid of 1510 points,  6 beta functions with: 
                l(1) =   0
                l(2) =   0
                l(3) =   1
                l(4) =   1
                l(5) =   2
                l(6) =   2

     atomic species   valence    mass     pseudopotential
        Si             4.00    28.08550     Si( 1.00)

     48 Sym. Ops., with inversion, found (24 have fractional translation)



   Cartesian axes

     site n.     atom                  positions (alat units)
         1           Si  tau(   1) = (   0.0000000   0.0000000   0.0000000  )
         2           Si  tau(   2) = (  -0.2500000   0.2500000   0.2500000  )

     number of k points=    28
                       cart. coord. in units 2pi/alat
        k(    1) = (  -0.0833333   0.0833333   0.0833333), wk =   0.0185185
        k(    2) = (  -0.2500000   0.2500000  -0.0833333), wk =   0.0555556
        k(    3) = (  -0.4166667   0.4166667  -0.2500000), wk =   0.0555556
        k(    4) = (   0.4166667  -0.4166667   0.5833333), wk =   0.0555556
        k(    5) = (   0.2500000  -0.2500000   0.4166667), wk =   0.0555556
        k(    6) = (   0.0833333  -0.0833333   0.2500000), wk =   0.0555556
        k(    7) = (  -0.0833333   0.4166667   0.0833333), wk =   0.0555556
        k(    8) = (  -0.2500000   0.5833333  -0.0833333), wk =   0.1111111
        k(    9) = (   0.5833333  -0.2500000   0.7500000), wk =   0.1111111
        k(   10) = (   0.4166667  -0.0833333   0.5833333), wk =   0.1111111
        k(   11) = (   0.2500000   0.0833333   0.4166667), wk =   0.1111111
        k(   12) = (  -0.0833333   0.7500000   0.0833333), wk =   0.0555556
        k(   13) = (   0.7500000  -0.0833333   0.9166667), wk =   0.1111111
        k(   14) = (   0.5833333   0.0833333   0.7500000), wk =   0.1111111
        k(   15) = (   0.4166667   0.2500000   0.5833333), wk =   0.1111111
        k(   16) = (  -0.0833333  -0.9166667   0.0833333), wk =   0.0555556
        k(   17) = (  -0.2500000  -0.7500000  -0.0833333), wk =   0.1111111
        k(   18) = (  -0.0833333  -0.5833333   0.0833333), wk =   0.0555556
        k(   19) = (  -0.2500000   0.2500000   0.2500000), wk =   0.0185185
        k(   20) = (  -0.4166667   0.4166667   0.0833333), wk =   0.0555556
        k(   21) = (   0.4166667  -0.4166667   0.9166667), wk =   0.0555556
        k(   22) = (   0.2500000  -0.2500000   0.7500000), wk =   0.0555556
        k(   23) = (  -0.2500000   0.5833333   0.2500000), wk =   0.0555556
        k(   24) = (   0.5833333  -0.2500000   1.0833333), wk =   0.1111111
        k(   25) = (   0.4166667  -0.0833333   0.9166667), wk =   0.1111111
        k(   26) = (  -0.2500000  -1.0833333   0.2500000), wk =   0.0555556
        k(   27) = (  -0.4166667   0.4166667   0.4166667), wk =   0.0185185
        k(   28) = (   0.4166667  -0.4166667   1.2500000), wk =   0.0555556

     Dense  grid:    20875 G-vectors     FFT dimensions: (  40,  40,  40)

     Estimated max dynamical RAM per process >       2.41 MB

     Estimated total dynamical RAM >      81.51 MB

     Initial potential from superposition of free atoms

     starting charge       7.9989, renormalised to       8.0000
     Starting wfcs are    8 randomized atomic wfcs

     total cpu time spent up to now is       15.4 secs

     Self-consistent Calculation

     iteration #  1     ecut=    70.00 Ry     beta= 0.70
     Davidson diagonalization with overlap
     ethr =  1.00E-02,  avg # of iterations =  2.0

     Threshold (ethr) on eigenvalues was too large:
     Diagonalizing with lowered threshold

     Davidson diagonalization with overlap
     ethr =  6.14E-04,  avg # of iterations =  2.0

     total cpu time spent up to now is       15.5 secs

     total energy              =     -17.04763119 Ry
     estimated scf accuracy    <       0.05802410 Ry

     iteration #  2     ecut=    70.00 Ry     beta= 0.70
     Davidson diagonalization with overlap
     ethr =  7.25E-04,  avg # of iterations =  1.0

     total cpu time spent up to now is       15.6 secs

     total energy              =     -17.04995668 Ry
     estimated scf accuracy    <       0.00249019 Ry

     iteration #  3     ecut=    70.00 Ry     beta= 0.70
     Davidson diagonalization with overlap
     ethr =  3.11E-05,  avg # of iterations =  3.0

     total cpu time spent up to now is       15.7 secs

     total energy              =     -17.05082384 Ry
     estimated scf accuracy    <       0.00009439 Ry

     iteration #  4     ecut=    70.00 Ry     beta= 0.70
     Davidson diagonalization with overlap
     ethr =  1.18E-06,  avg # of iterations =  4.5

     total cpu time spent up to now is       15.9 secs

     total energy              =     -17.05089825 Ry
     estimated scf accuracy    <       0.00000246 Ry

     iteration #  5     ecut=    70.00 Ry     beta= 0.70
     Davidson diagonalization with overlap
     ethr =  3.08E-08,  avg # of iterations =  4.6

     total cpu time spent up to now is       16.1 secs

     total energy              =     -17.05090100 Ry
     estimated scf accuracy    <       0.00000014 Ry

     iteration #  6     ecut=    70.00 Ry     beta= 0.70
     Davidson diagonalization with overlap
     ethr =  1.80E-09,  avg # of iterations =  3.2

     total cpu time spent up to now is       16.2 secs

     total energy              =     -17.05090106 Ry
     estimated scf accuracy    <       0.00000002 Ry

     iteration #  7     ecut=    70.00 Ry     beta= 0.70
     Davidson diagonalization with overlap
     ethr =  2.30E-10,  avg # of iterations =  3.2

     total cpu time spent up to now is       16.4 secs

     total energy              =     -17.05090107 Ry
     estimated scf accuracy    <          1.1E-10 Ry

     iteration #  8     ecut=    70.00 Ry     beta= 0.70
     Davidson diagonalization with overlap
     ethr =  1.39E-12,  avg # of iterations =  6.3

     total cpu time spent up to now is       16.6 secs

     End of self-consistent calculation

          k =-0.0833 0.0833 0.0833 (  2667 PWs)   bands (ev):

    -5.7561   5.3866   6.1106   6.1106

          k =-0.2500 0.2500-0.0833 (  2621 PWs)   bands (ev):

    -5.2692   3.2787   4.8359   5.9020

          k =-0.4167 0.4167-0.2500 (  2618 PWs)   bands (ev):

    -4.1491   0.4558   4.3704   5.2525

          k = 0.4167-0.4167 0.5833 (  2604 PWs)   bands (ev):

    -3.4239  -0.7235   4.4440   4.8612

          k = 0.2500-0.2500 0.4167 (  2618 PWs)   bands (ev):

    -4.5725   1.3222   4.9163   4.9543

          k = 0.0833-0.0833 0.2500 (  2643 PWs)   bands (ev):

    -5.5104   4.3092   5.4447   5.6431

          k =-0.0833 0.4167 0.0833 (  2627 PWs)   bands (ev):

    -5.0231   3.1094   4.6844   4.6977

          k =-0.2500 0.5833-0.0833 (  2613 PWs)   bands (ev):

    -4.0918   1.2428   3.3199   4.3008

          k = 0.5833-0.2500 0.7500 (  2616 PWs)   bands (ev):

    -2.9383  -0.5645   2.7090   4.0652

          k = 0.4167-0.0833 0.5833 (  2617 PWs)   bands (ev):

    -3.6856   0.5301   2.6549   4.5685

          k = 0.2500 0.0833 0.4167 (  2624 PWs)   bands (ev):

    -4.7922   2.2460   4.0374   5.2604

          k =-0.0833 0.7500 0.0833 (  2617 PWs)   bands (ev):

    -3.3664   0.4197   3.2861   3.6484

          k = 0.7500-0.0833 0.9167 (  2608 PWs)   bands (ev):

    -2.1400  -0.9430   2.4039   3.2177

          k = 0.5833 0.0833 0.7500 (  2608 PWs)   bands (ev):

    -2.5099  -0.6178   1.9049   3.7798

          k = 0.4167 0.2500 0.5833 (  2622 PWs)   bands (ev):

    -3.5664  -0.1967   3.6417   4.6731

          k =-0.0833-0.9167 0.0833 (  2604 PWs)   bands (ev):

    -2.2385  -0.9535   3.0091   3.4291

          k =-0.2500-0.7500-0.0833 (  2615 PWs)   bands (ev):

    -3.1914   0.1893   2.7413   3.5675

          k =-0.0833-0.5833 0.0833 (  2620 PWs)   bands (ev):

    -4.3033   1.8031   3.8480   4.0788

          k =-0.2500 0.2500 0.2500 (  2632 PWs)   bands (ev):

    -5.0343   2.2731   5.4857   5.4857

          k =-0.4167 0.4167 0.0833 (  2620 PWs)   bands (ev):

    -4.3392   1.3430   3.2813   5.3165

          k = 0.4167-0.4167 0.9167 (  2613 PWs)   bands (ev):

    -3.1274  -0.1140   2.1362   4.5076

          k = 0.2500-0.2500 0.7500 (  2618 PWs)   bands (ev):

    -3.0761  -0.1941   2.6355   4.0115

          k =-0.2500 0.5833 0.2500 (  2613 PWs)   bands (ev):

    -3.9042   0.5133   3.7736   4.3933

          k = 0.5833-0.2500 1.0833 (  2619 PWs)   bands (ev):

    -2.8765  -0.2149   2.2381   3.5572

          k = 0.4167-0.0833 0.9167 (  2613 PWs)   bands (ev):

    -2.0245  -0.9506   2.0592   2.8637

          k =-0.2500-1.0833 0.2500 (  2605 PWs)   bands (ev):

    -2.2385  -0.8649   1.9289   3.8127

          k =-0.4167 0.4167 0.4167 (  2602 PWs)   bands (ev):

    -3.8074  -0.3119   5.0941   5.0941

          k = 0.4167-0.4167 1.2500 (  2605 PWs)   bands (ev):

    -3.1840  -0.6106   3.2018   4.6388

     highest occupied level (ev):     6.1106

!    total energy              =     -17.05090107 Ry
     estimated scf accuracy    <          8.7E-11 Ry

     The total energy is the sum of the following terms:
     one-electron contribution =       5.01080920 Ry
     hartree contribution      =       1.07709896 Ry
     xc contribution           =      -6.22230795 Ry
     ewald contribution        =     -16.91650128 Ry

     convergence has been achieved in   8 iterations

     Forces acting on atoms (cartesian axes, Ry/au):

     atom    1 type  1   force =    -0.00000000   -0.00000000    0.00000000
     atom    2 type  1   force =     0.00000000    0.00000000   -0.00000000

     Total force =     0.000000     Total SCF correction =     0.000000

     Writing all to output data dir /fastscratch/tsievers/QE_TMP_DIR/si_ph_bench_poolsize_18_n_procs_36_0.save/
 
     init_run     :      0.05s CPU      0.09s WALL (       1 calls)
     electrons    :      1.21s CPU      1.31s WALL (       1 calls)
     forces       :      0.01s CPU      0.01s WALL (       1 calls)

     Called by init_run:
     wfcinit      :      0.03s CPU      0.04s WALL (       1 calls)
     potinit      :      0.00s CPU      0.00s WALL (       1 calls)
     hinit0       :      0.01s CPU      0.04s WALL (       1 calls)

     Called by electrons:
     c_bands      :      1.14s CPU      1.17s WALL (       9 calls)
     sum_band     :      0.06s CPU      0.06s WALL (       9 calls)
     v_of_rho     :      0.01s CPU      0.01s WALL (       9 calls)
     mix_rho      :      0.00s CPU      0.00s WALL (       9 calls)

     Called by c_bands:
     init_us_2    :      0.02s CPU      0.02s WALL (     280 calls)
     init_us_2:cp :      0.01s CPU      0.02s WALL (     280 calls)
     cegterg      :      0.78s CPU      0.81s WALL (     126 calls)

     Called by *egterg:
     cdiaghg      :      0.35s CPU      0.36s WALL (     547 calls)
     h_psi        :      0.29s CPU      0.31s WALL (     575 calls)
     g_psi        :      0.00s CPU      0.00s WALL (     435 calls)

     Called by h_psi:
     h_psi:calbec :      0.02s CPU      0.02s WALL (     575 calls)
     vloc_psi     :      0.26s CPU      0.27s WALL (     575 calls)
     add_vuspsi   :      0.01s CPU      0.01s WALL (     575 calls)

     General routines
     calbec       :      0.02s CPU      0.02s WALL (     631 calls)
     fft          :      0.01s CPU      0.03s WALL (      31 calls)
     ffts         :      0.00s CPU      0.00s WALL (       9 calls)
     fftw         :      0.27s CPU      0.28s WALL (    4244 calls)
 
     Parallel routines
 
     PWSCF        :     16.57s CPU     16.98s WALL

 
   This run was terminated on:  20:54:51   3May2022            

=------------------------------------------------------------------------------=
   JOB DONE.
=------------------------------------------------------------------------------=

     Program PHONON v.7.0 starts on  3May2022 at 20:54:55 

     This program is part of the open-source Quantum ESPRESSO suite
     for quantum simulation of materials; please cite
         "P. Giannozzi et al., J. Phys.:Condens. Matter 21 395502 (2009);
         "P. Giannozzi et al., J. Phys.:Condens. Matter 29 465901 (2017);
         "P. Giannozzi et al., J. Chem. Phys. 152 154105 (2020);
          URL http://www.quantum-espresso.org", 
     in publications or presentations arising from this work. More details at
     http://www.quantum-espresso.org/quote

     Parallel version (MPI), running on    36 processors

     MPI processes distributed on     2 nodes
     K-points division:     npool     =       2
     R & G space division:  proc/nbgrp/npool/nimage =      18
     31481 MiB available memory on the printing compute node when the environment starts
 
     Reading input from in_files/si_ph_bench_poolsize_18_n_procs_36_0.ph
      Title line not specified: using 'default'.

     Reading xml data from directory:

     /fastscratch/tsievers/QE_TMP_DIR/si_ph_bench_poolsize_18_n_procs_36_0.save/

     IMPORTANT: XC functional enforced from input :
     Exchange-correlation= PW
                           (   1   4   0   0   0   0   0)
     Any further DFT definition will be discarded
     Please, verify this is what you really want

 
     Parallelization info
     --------------------
     sticks:   dense  smooth     PW     G-vecs:    dense   smooth      PW
     Min          55      55     16                 1158     1158     191
     Max          56      56     17                 1161     1161     195
     Sum        1003    1003    301                20875    20875    3479
 
     Using Slab Decomposition
 
     Reading collected, re-writing distributed wavefunctions


     Dynamical matrices for ( 6, 6, 6)  uniform grid of q-points
     (  16 q-points):
       N         xq(1)         xq(2)         xq(3) 
       1   0.000000000   0.000000000   0.000000000
       2  -0.166666667   0.166666667  -0.166666667
       3  -0.333333333   0.333333333  -0.333333333
       4   0.500000000  -0.500000000   0.500000000
       5   0.000000000   0.333333333   0.000000000
       6  -0.166666667   0.500000000  -0.166666667
       7   0.666666667  -0.333333333   0.666666667
       8   0.500000000  -0.166666667   0.500000000
       9   0.333333333   0.000000000   0.333333333
      10   0.000000000   0.666666667   0.000000000
      11   0.833333333  -0.166666667   0.833333333
      12   0.666666667  -0.000000000   0.666666667
      13   0.000000000  -1.000000000   0.000000000
      14   0.666666667  -0.333333333   1.000000000
      15   0.500000000  -0.166666667   0.833333333
      16  -0.333333333  -1.000000000   0.000000000

     Calculation of q =    0.0000000   0.0000000   0.0000000

     default                                                                    

     bravais-lattice index     =            2
     lattice parameter (alat)  =      10.1899  a.u.
     unit-cell volume          =     264.5151 (a.u.)^3
     number of atoms/cell      =            2
     number of atomic types    =            1
     kinetic-energy cut-off    =      70.0000  Ry
     charge density cut-off    =     280.0000  Ry
     convergence threshold     =      1.0E-15
     beta                      =       0.7000
     number of iterations used =            4
     Exchange-correlation= PW
                           (   1   4   0   0   0   0   0)


     celldm(1)=   10.18990  celldm(2)=    0.00000  celldm(3)=    0.00000
     celldm(4)=    0.00000  celldm(5)=    0.00000  celldm(6)=    0.00000

     crystal axes: (cart. coord. in units of alat)
               a(1) = ( -0.5000  0.0000  0.5000 )  
               a(2) = (  0.0000  0.5000  0.5000 )  
               a(3) = ( -0.5000  0.5000  0.0000 )  

     reciprocal axes: (cart. coord. in units 2 pi/alat)
               b(1) = ( -1.0000 -1.0000  1.0000 )  
               b(2) = (  1.0000  1.0000  1.0000 )  
               b(3) = ( -1.0000  1.0000 -1.0000 )  


     Atoms inside the unit cell: 

     Cartesian axes

     site n.  atom      mass           positions (alat units)
        1     Si  28.0855   tau(    1) = (    0.00000    0.00000    0.00000  )
        2     Si  28.0855   tau(    2) = (   -0.25000    0.25000    0.25000  )

     Computing dynamical matrix for 
                    q = (   0.0000000   0.0000000   0.0000000 )
 
     49 Sym.Ops. (with q -> -q+G )


     G cutoff =  736.4420  (   1161 G-vectors)     FFT grid: ( 40, 40, 40)
     number of k points=    28

     PseudoPot. # 1 for Si read from file:
     ./pseudos/Si.nc.UPF
     MD5 check sum: 9e2d726316af3d4752eea8ab0afbb951
     Pseudo is Norm-conserving + core correction, Zval =  4.0
     Generated using ONCVPSP code by D. R. Hamann
     Using radial grid of 1510 points,  6 beta functions with: 
                l(1) =   0
                l(2) =   0
                l(3) =   1
                l(4) =   1
                l(5) =   2
                l(6) =   2

     Mode symmetry, O_h (m-3m)  point group:


     Electric field:
     Dielectric constant
     Born effective charges in two ways 


     Atomic displacements:
     There are    2 irreducible representations

     Representation     1      3 modes -  To be done

     Representation     2      3 modes -  To be done



     Alpha used in Ewald sum =   2.8000
     PHONON       :      0.42s CPU      4.22s WALL


     Electric Fields Calculation

      iter #   1 total cpu time :     5.5 secs   av.it.:   6.5
      thresh= 1.000E-02 alpha_mix =  0.700 |ddv_scf|^2 =  6.313E-08

      iter #   2 total cpu time :     6.4 secs   av.it.:  12.0
      thresh= 2.513E-05 alpha_mix =  0.700 |ddv_scf|^2 =  2.705E-09

      iter #   3 total cpu time :     7.2 secs   av.it.:  11.8
      thresh= 5.201E-06 alpha_mix =  0.700 |ddv_scf|^2 =  3.050E-11

      iter #   4 total cpu time :     8.1 secs   av.it.:  12.2
      thresh= 5.522E-07 alpha_mix =  0.700 |ddv_scf|^2 =  1.809E-13

      iter #   5 total cpu time :    12.2 secs   av.it.:  11.1
      thresh= 4.253E-08 alpha_mix =  0.700 |ddv_scf|^2 =  6.644E-17

     End of electric fields calculation

          Dielectric constant in cartesian axis 

          (      13.312040158       0.000000000       0.000000000 )
          (       0.000000000      13.312040158      -0.000000000 )
          (       0.000000000      -0.000000000      13.312040158 )

          Effective charges (d Force / dE) in cartesian axis without acoustic sum rule applied (asr)

           atom      1   Si Mean Z*:       -0.00675
      Ex  (       -0.00675       -0.00000       -0.00000 )
      Ey  (       -0.00000       -0.00675        0.00000 )
      Ez  (        0.00000        0.00000       -0.00675 )
           atom      2   Si Mean Z*:       -0.00675
      Ex  (       -0.00675        0.00000        0.00000 )
      Ey  (        0.00000       -0.00675        0.00000 )
      Ez  (        0.00000        0.00000       -0.00675 )

          Effective charges Sum: Mean:       -0.01351
             -0.01351       -0.00000        0.00000
             -0.00000       -0.01351        0.00000
              0.00000        0.00000       -0.01351

          Effective charges (d Force / dE) in cartesian axis with asr applied: 
           atom      1   Si Mean Z*:       -0.00000
      E*x (       -0.00000       -0.00000       -0.00000 )
      E*y (       -0.00000       -0.00000        0.00000 )
      E*z (       -0.00000        0.00000       -0.00000 )
           atom      2   Si Mean Z*:        0.00000
      E*x (        0.00000        0.00000        0.00000 )
      E*y (        0.00000        0.00000       -0.00000 )
      E*z (        0.00000       -0.00000        0.00000 )


     Representation #   1 modes #   1   2   3

     Self-consistent Calculation

      iter #   1 total cpu time :    13.1 secs   av.it.:   5.8
      thresh= 1.000E-02 alpha_mix =  0.700 |ddv_scf|^2 =  9.101E-09

      iter #   2 total cpu time :    14.0 secs   av.it.:  11.9
      thresh= 9.540E-06 alpha_mix =  0.700 |ddv_scf|^2 =  2.045E-10

      iter #   3 total cpu time :    14.9 secs   av.it.:  12.0
      thresh= 1.430E-06 alpha_mix =  0.700 |ddv_scf|^2 =  7.634E-12

      iter #   4 total cpu time :    15.9 secs   av.it.:  11.7
      thresh= 2.763E-07 alpha_mix =  0.700 |ddv_scf|^2 =  2.472E-14

      iter #   5 total cpu time :    17.7 secs   av.it.:  12.1
      thresh= 1.572E-08 alpha_mix =  0.700 |ddv_scf|^2 =  1.148E-16

     End of self-consistent calculation

     Convergence has been achieved 


     Representation #   2 modes #   4   5   6

     Self-consistent Calculation

      iter #   1 total cpu time :    20.2 secs   av.it.:   6.0
      thresh= 1.000E-02 alpha_mix =  0.700 |ddv_scf|^2 =  6.569E-09

      iter #   2 total cpu time :    25.9 secs   av.it.:  12.1
      thresh= 8.105E-06 alpha_mix =  0.700 |ddv_scf|^2 =  2.362E-10

      iter #   3 total cpu time :    27.8 secs   av.it.:  12.0
      thresh= 1.537E-06 alpha_mix =  0.700 |ddv_scf|^2 =  1.075E-11

      iter #   4 total cpu time :    28.8 secs   av.it.:  12.0
      thresh= 3.279E-07 alpha_mix =  0.700 |ddv_scf|^2 =  1.925E-14

      iter #   5 total cpu time :    30.1 secs   av.it.:  12.2
      thresh= 1.387E-08 alpha_mix =  0.700 |ddv_scf|^2 =  5.189E-17

     End of self-consistent calculation

     Convergence has been achieved 
 
     Number of q in the star =    1
     List of q in the star:
          1   0.000000000   0.000000000   0.000000000

          Dielectric constant in cartesian axis 

          (      13.312040158       0.000000000       0.000000000 )
          (       0.000000000      13.312040158      -0.000000000 )
          (       0.000000000      -0.000000000      13.312040158 )

          Effective charges (d Force / dE) in cartesian axis without acoustic sum rule applied (asr)

           atom      1   Si Mean Z*:       -0.00675
      Ex  (       -0.00675       -0.00000       -0.00000 )
      Ey  (       -0.00000       -0.00675        0.00000 )
      Ez  (        0.00000        0.00000       -0.00675 )
           atom      2   Si Mean Z*:       -0.00675
      Ex  (       -0.00675        0.00000        0.00000 )
      Ey  (        0.00000       -0.00675        0.00000 )
      Ez  (        0.00000        0.00000       -0.00675 )

          Effective charges Sum: Mean:       -0.01351
             -0.01351       -0.00000        0.00000
             -0.00000       -0.01351        0.00000
              0.00000        0.00000       -0.01351

          Effective charges (d Force / dE) in cartesian axis with asr applied: 
           atom      1   Si Mean Z*:       -0.00000
      E*x (       -0.00000       -0.00000       -0.00000 )
      E*y (       -0.00000       -0.00000        0.00000 )
      E*z (       -0.00000        0.00000       -0.00000 )
           atom      2   Si Mean Z*:        0.00000
      E*x (        0.00000        0.00000        0.00000 )
      E*y (        0.00000        0.00000       -0.00000 )
      E*z (        0.00000       -0.00000        0.00000 )

          Effective charges (d P / du) in cartesian axis 

           atom      1   Si 
      Px  (       -0.00682        0.00000       -0.00000 )
      Py  (       -0.00000       -0.00682       -0.00000 )
      Pz  (       -0.00000        0.00000       -0.00682 )
           atom      2   Si 
      Px  (       -0.00682       -0.00000        0.00000 )
      Py  (       -0.00000       -0.00682        0.00000 )
      Pz  (       -0.00000        0.00000       -0.00682 )

     Diagonalizing the dynamical matrix

     q = (    0.000000000   0.000000000   0.000000000 ) 

 **************************************************************************
     freq (    1) =      -0.120289 [THz] =      -4.012400 [cm-1]
     freq (    2) =      -0.120289 [THz] =      -4.012400 [cm-1]
     freq (    3) =      -0.120289 [THz] =      -4.012400 [cm-1]
     freq (    4) =      15.412027 [THz] =     514.089870 [cm-1]
     freq (    5) =      15.412027 [THz] =     514.089870 [cm-1]
     freq (    6) =      15.412027 [THz] =     514.089870 [cm-1]
 **************************************************************************

     Mode symmetry, O_h (m-3m)  point group:

     freq (   1-   3) =         -4.0  [cm-1]   --> T_1u G_15  G_4- I  
     freq (   4-   6) =        514.1  [cm-1]   --> T_2g G_25' G_5+ R  

     Calculation of q =   -0.1666667   0.1666667  -0.1666667

     Subspace diagonalization in iterative solution of the eigenvalue problem:
     one sub-group per band group will be used
     scalapack distributed-memory algorithm (size of sub-group:  3*  3 procs)

 
     Parallelization info
     --------------------
     sticks:   dense  smooth     PW     G-vecs:    dense   smooth      PW
     Min          55      55     17                 1158     1158     204
     Max          56      56     18                 1161     1161     207
     Sum        1003    1003    313                20875    20875    3695
 
     Using Slab Decomposition
 

     Title: 
     default                                                                    


     bravais-lattice index     =            2
     lattice parameter (alat)  =      10.1899  a.u.
     unit-cell volume          =     264.5151 (a.u.)^3
     number of atoms/cell      =            2
     number of atomic types    =            1
     number of electrons       =         8.00
     number of Kohn-Sham states=            4
     kinetic-energy cutoff     =      70.0000  Ry
     charge density cutoff     =     280.0000  Ry
     Exchange-correlation= PW
                           (   1   4   0   0   0   0   0)

     celldm(1)=  10.189905  celldm(2)=   0.000000  celldm(3)=   0.000000
     celldm(4)=   0.000000  celldm(5)=   0.000000  celldm(6)=   0.000000

     crystal axes: (cart. coord. in units of alat)
               a(1) = (  -0.500000   0.000000   0.500000 )  
               a(2) = (   0.000000   0.500000   0.500000 )  
               a(3) = (  -0.500000   0.500000   0.000000 )  

     reciprocal axes: (cart. coord. in units 2 pi/alat)
               b(1) = ( -1.000000 -1.000000  1.000000 )  
               b(2) = (  1.000000  1.000000  1.000000 )  
               b(3) = ( -1.000000  1.000000 -1.000000 )  


     PseudoPot. # 1 for Si read from file:
     ./pseudos/Si.nc.UPF
     MD5 check sum: 9e2d726316af3d4752eea8ab0afbb951
     Pseudo is Norm-conserving + core correction, Zval =  4.0
     Generated using ONCVPSP code by D. R. Hamann
     Using radial grid of 1510 points,  6 beta functions with: 
                l(1) =   0
                l(2) =   0
                l(3) =   1
                l(4) =   1
                l(5) =   2
                l(6) =   2

     atomic species   valence    mass     pseudopotential
        Si             4.00    28.08550     Si( 1.00)

     48 Sym. Ops., with inversion, found



   Cartesian axes

     site n.     atom                  positions (alat units)
         1           Si  tau(   1) = (   0.0000000   0.0000000   0.0000000  )
         2           Si  tau(   2) = (  -0.2500000   0.2500000   0.2500000  )

     number of k points=   364

     Number of k-points >= 100: set verbosity='high' to print them.

     Dense  grid:    20875 G-vectors     FFT dimensions: (  40,  40,  40)

     Estimated max dynamical RAM per process >       2.00 MB

     Estimated total dynamical RAM >      71.89 MB

     The potential is recalculated from file :
     /fastscratch/tsievers/QE_TMP_DIR/_ph0/si_ph_bench_poolsize_18_n_procs_36_0.save/charge-density

     Starting wfcs are    8 atomic wfcs

     Band Structure Calculation
     Davidson diagonalization with overlap

     ethr =  1.25E-10,  avg # of iterations = 12.9

     total cpu time spent up to now is        6.5 secs

     End of band structure calculation

     Number of k-points >= 100: set verbosity='high' to print the bands.

     highest occupied level (ev):     6.1106

     Writing config to output data dir /fastscratch/tsievers/QE_TMP_DIR/_ph0/si_ph_bench_poolsize_18_n_procs_36_0.save/

     default                                                                    

     bravais-lattice index     =            2
     lattice parameter (alat)  =      10.1899  a.u.
     unit-cell volume          =     264.5151 (a.u.)^3
     number of atoms/cell      =            2
     number of atomic types    =            1
     kinetic-energy cut-off    =      70.0000  Ry
     charge density cut-off    =     280.0000  Ry
     convergence threshold     =      1.0E-15
     beta                      =       0.7000
     number of iterations used =            4
     Exchange-correlation= PW
                           (   1   4   0   0   0   0   0)


     celldm(1)=   10.18990  celldm(2)=    0.00000  celldm(3)=    0.00000
     celldm(4)=    0.00000  celldm(5)=    0.00000  celldm(6)=    0.00000

     crystal axes: (cart. coord. in units of alat)
               a(1) = ( -0.5000  0.0000  0.5000 )  
               a(2) = (  0.0000  0.5000  0.5000 )  
               a(3) = ( -0.5000  0.5000  0.0000 )  

     reciprocal axes: (cart. coord. in units 2 pi/alat)
               b(1) = ( -1.0000 -1.0000  1.0000 )  
               b(2) = (  1.0000  1.0000  1.0000 )  
               b(3) = ( -1.0000  1.0000 -1.0000 )  


     Atoms inside the unit cell: 

     Cartesian axes

     site n.  atom      mass           positions (alat units)
        1     Si  28.0855   tau(    1) = (    0.00000    0.00000    0.00000  )
        2     Si  28.0855   tau(    2) = (   -0.25000    0.25000    0.25000  )

     Computing dynamical matrix for 
                    q = (  -0.1666667   0.1666667  -0.1666667 )
 
      6 Sym.Ops. (no q -> -q+G )


     G cutoff =  736.4420  (   1161 G-vectors)     FFT grid: ( 40, 40, 40)
     number of k points=   364

     PseudoPot. # 1 for Si read from file:
     ./pseudos/Si.nc.UPF
     MD5 check sum: 9e2d726316af3d4752eea8ab0afbb951
     Pseudo is Norm-conserving + core correction, Zval =  4.0
     Generated using ONCVPSP code by D. R. Hamann
     Using radial grid of 1510 points,  6 beta functions with: 
                l(1) =   0
                l(2) =   0
                l(3) =   1
                l(4) =   1
                l(5) =   2
                l(6) =   2

     Mode symmetry, C_3v (3m)   point group:


     Atomic displacements:
     There are    4 irreducible representations

     Representation     1      1 modes -  To be done

     Representation     2      1 modes -  To be done

     Representation     3      2 modes -  To be done

     Representation     4      2 modes -  To be done



     Alpha used in Ewald sum =   2.8000
     PHONON       :     20.61s CPU     38.23s WALL



     Representation #   1 mode #   1

     Self-consistent Calculation

      iter #   1 total cpu time :    39.3 secs   av.it.:   6.6
      thresh= 1.000E-02 alpha_mix =  0.700 |ddv_scf|^2 =  8.515E-04

      iter #   2 total cpu time :    40.4 secs   av.it.:   9.2
      thresh= 2.918E-03 alpha_mix =  0.700 |ddv_scf|^2 =  2.790E-02

      iter #   3 total cpu time :    41.3 secs   av.it.:   7.6
      thresh= 1.000E-02 alpha_mix =  0.700 |ddv_scf|^2 =  2.272E-07

      iter #   4 total cpu time :    42.4 secs   av.it.:   9.3
      thresh= 4.766E-05 alpha_mix =  0.700 |ddv_scf|^2 =  7.451E-09

      iter #   5 total cpu time :    43.5 secs   av.it.:   9.7
      thresh= 8.632E-06 alpha_mix =  0.700 |ddv_scf|^2 =  2.489E-10

      iter #   6 total cpu time :    44.4 secs   av.it.:   9.3
      thresh= 1.578E-06 alpha_mix =  0.700 |ddv_scf|^2 =  7.012E-10

      iter #   7 total cpu time :    45.3 secs   av.it.:   7.9
      thresh= 2.648E-06 alpha_mix =  0.700 |ddv_scf|^2 =  5.646E-11

      iter #   8 total cpu time :    46.5 secs   av.it.:   8.7
      thresh= 7.514E-07 alpha_mix =  0.700 |ddv_scf|^2 =  4.036E-13

      iter #   9 total cpu time :    47.5 secs   av.it.:   8.5
      thresh= 6.353E-08 alpha_mix =  0.700 |ddv_scf|^2 =  9.187E-15

      iter #  10 total cpu time :    48.4 secs   av.it.:   8.8
      thresh= 9.585E-09 alpha_mix =  0.700 |ddv_scf|^2 =  9.207E-16

     End of self-consistent calculation

     Convergence has been achieved 


     Representation #   2 mode #   2

     Self-consistent Calculation

      iter #   1 total cpu time :    49.6 secs   av.it.:   6.6
      thresh= 1.000E-02 alpha_mix =  0.700 |ddv_scf|^2 =  8.515E-04

      iter #   2 total cpu time :    50.5 secs   av.it.:   9.2
      thresh= 2.918E-03 alpha_mix =  0.700 |ddv_scf|^2 =  2.790E-02

      iter #   3 total cpu time :    51.4 secs   av.it.:   7.6
      thresh= 1.000E-02 alpha_mix =  0.700 |ddv_scf|^2 =  2.272E-07

      iter #   4 total cpu time :    52.4 secs   av.it.:   9.3
      thresh= 4.766E-05 alpha_mix =  0.700 |ddv_scf|^2 =  7.451E-09

      iter #   5 total cpu time :    53.5 secs   av.it.:   9.7
      thresh= 8.632E-06 alpha_mix =  0.700 |ddv_scf|^2 =  2.489E-10

      iter #   6 total cpu time :    54.4 secs   av.it.:   9.3
      thresh= 1.578E-06 alpha_mix =  0.700 |ddv_scf|^2 =  7.012E-10

      iter #   7 total cpu time :    55.3 secs   av.it.:   7.9
      thresh= 2.648E-06 alpha_mix =  0.700 |ddv_scf|^2 =  5.646E-11

      iter #   8 total cpu time :    56.4 secs   av.it.:   8.6
      thresh= 7.514E-07 alpha_mix =  0.700 |ddv_scf|^2 =  4.037E-13

      iter #   9 total cpu time :    57.6 secs   av.it.:   8.5
      thresh= 6.353E-08 alpha_mix =  0.700 |ddv_scf|^2 =  9.188E-15

      iter #  10 total cpu time :    58.5 secs   av.it.:   8.8
      thresh= 9.585E-09 alpha_mix =  0.700 |ddv_scf|^2 =  9.208E-16

     End of self-consistent calculation

     Convergence has been achieved 


     Representation #   3 modes #   3   4

     Self-consistent Calculation

      iter #   1 total cpu time :    60.1 secs   av.it.:   6.1
      thresh= 1.000E-02 alpha_mix =  0.700 |ddv_scf|^2 =  2.221E-08

      iter #   2 total cpu time :    62.9 secs   av.it.:  11.7
      thresh= 1.490E-05 alpha_mix =  0.700 |ddv_scf|^2 =  9.884E-10

      iter #   3 total cpu time :    65.6 secs   av.it.:  11.5
      thresh= 3.144E-06 alpha_mix =  0.700 |ddv_scf|^2 =  2.581E-11

      iter #   4 total cpu time :    68.5 secs   av.it.:  11.6
      thresh= 5.080E-07 alpha_mix =  0.700 |ddv_scf|^2 =  2.978E-13

      iter #   5 total cpu time :    73.6 secs   av.it.:  11.6
      thresh= 5.457E-08 alpha_mix =  0.700 |ddv_scf|^2 =  6.319E-15

      iter #   6 total cpu time :    75.9 secs   av.it.:  12.0
      thresh= 7.949E-09 alpha_mix =  0.700 |ddv_scf|^2 =  2.869E-17

     End of self-consistent calculation

     Convergence has been achieved 


     Representation #   4 modes #   5   6

     Self-consistent Calculation

      iter #   1 total cpu time :    77.7 secs   av.it.:   6.0
      thresh= 1.000E-02 alpha_mix =  0.700 |ddv_scf|^2 =  2.221E-08

      iter #   2 total cpu time :    80.7 secs   av.it.:  11.7
      thresh= 1.490E-05 alpha_mix =  0.700 |ddv_scf|^2 =  9.888E-10

      iter #   3 total cpu time :    83.2 secs   av.it.:  11.5
      thresh= 3.145E-06 alpha_mix =  0.700 |ddv_scf|^2 =  2.581E-11

      iter #   4 total cpu time :    85.8 secs   av.it.:  11.6
      thresh= 5.080E-07 alpha_mix =  0.700 |ddv_scf|^2 =  2.979E-13

      iter #   5 total cpu time :    88.4 secs   av.it.:  11.6
      thresh= 5.458E-08 alpha_mix =  0.700 |ddv_scf|^2 =  6.329E-15

      iter #   6 total cpu time :    90.6 secs   av.it.:  11.9
      thresh= 7.955E-09 alpha_mix =  0.700 |ddv_scf|^2 =  2.867E-17

     End of self-consistent calculation

     Convergence has been achieved 
 
     Number of q in the star =    8
     List of q in the star:
          1  -0.166666667   0.166666667  -0.166666667
          2   0.166666667   0.166666667   0.166666667
          3  -0.166666667  -0.166666667  -0.166666667
          4   0.166666667  -0.166666667   0.166666667
          5   0.166666667  -0.166666667  -0.166666667
          6   0.166666667   0.166666667  -0.166666667
          7  -0.166666667  -0.166666667   0.166666667
          8  -0.166666667   0.166666667   0.166666667

     Diagonalizing the dynamical matrix

     q = (   -0.166666667   0.166666667  -0.166666667 ) 

 **************************************************************************
     freq (    1) =       2.202560 [THz] =      73.469496 [cm-1]
     freq (    2) =       2.202560 [THz] =      73.469496 [cm-1]
     freq (    3) =       4.748344 [THz] =     158.387722 [cm-1]
     freq (    4) =      15.023943 [THz] =     501.144804 [cm-1]
     freq (    5) =      15.065857 [THz] =     502.542906 [cm-1]
     freq (    6) =      15.065857 [THz] =     502.542906 [cm-1]
 **************************************************************************

     Mode symmetry, C_3v (3m)   point group:

     freq (   1-   2) =         73.5  [cm-1]   --> E    L_3           
     freq (   3-   3) =        158.4  [cm-1]   --> A_1  L_1           
     freq (   4-   4) =        501.1  [cm-1]   --> A_1  L_1           
     freq (   5-   6) =        502.5  [cm-1]   --> E    L_3           

     Calculation of q =   -0.3333333   0.3333333  -0.3333333
 
     Parallelization info
     --------------------
     sticks:   dense  smooth     PW     G-vecs:    dense   smooth      PW
     Min          55      55     17                 1158     1158     211
     Max          56      56     18                 1161     1161     216
     Sum        1003    1003    313                20875    20875    3839
 
     Using Slab Decomposition
 

     Title: 
     default                                                                    


     bravais-lattice index     =            2
     lattice parameter (alat)  =      10.1899  a.u.
     unit-cell volume          =     264.5151 (a.u.)^3
     number of atoms/cell      =            2
     number of atomic types    =            1
     number of electrons       =         8.00
     number of Kohn-Sham states=            4
     kinetic-energy cutoff     =      70.0000  Ry
     charge density cutoff     =     280.0000  Ry
     Exchange-correlation= PW
                           (   1   4   0   0   0   0   0)

     celldm(1)=  10.189905  celldm(2)=   0.000000  celldm(3)=   0.000000
     celldm(4)=   0.000000  celldm(5)=   0.000000  celldm(6)=   0.000000

     crystal axes: (cart. coord. in units of alat)
               a(1) = (  -0.500000   0.000000   0.500000 )  
               a(2) = (   0.000000   0.500000   0.500000 )  
               a(3) = (  -0.500000   0.500000   0.000000 )  

     reciprocal axes: (cart. coord. in units 2 pi/alat)
               b(1) = ( -1.000000 -1.000000  1.000000 )  
               b(2) = (  1.000000  1.000000  1.000000 )  
               b(3) = ( -1.000000  1.000000 -1.000000 )  


     PseudoPot. # 1 for Si read from file:
     ./pseudos/Si.nc.UPF
     MD5 check sum: 9e2d726316af3d4752eea8ab0afbb951
     Pseudo is Norm-conserving + core correction, Zval =  4.0
     Generated using ONCVPSP code by D. R. Hamann
     Using radial grid of 1510 points,  6 beta functions with: 
                l(1) =   0
                l(2) =   0
                l(3) =   1
                l(4) =   1
                l(5) =   2
                l(6) =   2

     atomic species   valence    mass     pseudopotential
        Si             4.00    28.08550     Si( 1.00)

     48 Sym. Ops., with inversion, found



   Cartesian axes

     site n.     atom                  positions (alat units)
         1           Si  tau(   1) = (   0.0000000   0.0000000   0.0000000  )
         2           Si  tau(   2) = (  -0.2500000   0.2500000   0.2500000  )

     number of k points=   364

     Number of k-points >= 100: set verbosity='high' to print them.

     Dense  grid:    20875 G-vectors     FFT dimensions: (  40,  40,  40)

     Estimated max dynamical RAM per process >       2.01 MB

     Estimated total dynamical RAM >      72.37 MB

     The potential is recalculated from file :
     /fastscratch/tsievers/QE_TMP_DIR/_ph0/si_ph_bench_poolsize_18_n_procs_36_0.save/charge-density

     Starting wfcs are    8 atomic wfcs

     Band Structure Calculation
     Davidson diagonalization with overlap

     ethr =  1.25E-10,  avg # of iterations = 12.9

     total cpu time spent up to now is       13.8 secs

     End of band structure calculation

     Number of k-points >= 100: set verbosity='high' to print the bands.

     highest occupied level (ev):     6.1106

     Writing config to output data dir /fastscratch/tsievers/QE_TMP_DIR/_ph0/si_ph_bench_poolsize_18_n_procs_36_0.save/

     default                                                                    

     bravais-lattice index     =            2
     lattice parameter (alat)  =      10.1899  a.u.
     unit-cell volume          =     264.5151 (a.u.)^3
     number of atoms/cell      =            2
     number of atomic types    =            1
     kinetic-energy cut-off    =      70.0000  Ry
     charge density cut-off    =     280.0000  Ry
     convergence threshold     =      1.0E-15
     beta                      =       0.7000
     number of iterations used =            4
     Exchange-correlation= PW
                           (   1   4   0   0   0   0   0)


     celldm(1)=   10.18990  celldm(2)=    0.00000  celldm(3)=    0.00000
     celldm(4)=    0.00000  celldm(5)=    0.00000  celldm(6)=    0.00000

     crystal axes: (cart. coord. in units of alat)
               a(1) = ( -0.5000  0.0000  0.5000 )  
               a(2) = (  0.0000  0.5000  0.5000 )  
               a(3) = ( -0.5000  0.5000  0.0000 )  

     reciprocal axes: (cart. coord. in units 2 pi/alat)
               b(1) = ( -1.0000 -1.0000  1.0000 )  
               b(2) = (  1.0000  1.0000  1.0000 )  
               b(3) = ( -1.0000  1.0000 -1.0000 )  


     Atoms inside the unit cell: 

     Cartesian axes

     site n.  atom      mass           positions (alat units)
        1     Si  28.0855   tau(    1) = (    0.00000    0.00000    0.00000  )
        2     Si  28.0855   tau(    2) = (   -0.25000    0.25000    0.25000  )

     Computing dynamical matrix for 
                    q = (  -0.3333333   0.3333333  -0.3333333 )
 
      6 Sym.Ops. (no q -> -q+G )


     G cutoff =  736.4420  (   1161 G-vectors)     FFT grid: ( 40, 40, 40)
     number of k points=   364

     PseudoPot. # 1 for Si read from file:
     ./pseudos/Si.nc.UPF
     MD5 check sum: 9e2d726316af3d4752eea8ab0afbb951
     Pseudo is Norm-conserving + core correction, Zval =  4.0
     Generated using ONCVPSP code by D. R. Hamann
     Using radial grid of 1510 points,  6 beta functions with: 
                l(1) =   0
                l(2) =   0
                l(3) =   1
                l(4) =   1
                l(5) =   2
                l(6) =   2

     Mode symmetry, C_3v (3m)   point group:


     Atomic displacements:
     There are    4 irreducible representations

     Representation     1      1 modes -  To be done

     Representation     2      1 modes -  To be done

     Representation     3      2 modes -  To be done

     Representation     4      2 modes -  To be done



     Alpha used in Ewald sum =   2.8000
     PHONON       :   1m13.30s CPU   1m39.45s WALL



     Representation #   1 mode #   1

     Self-consistent Calculation

      iter #   1 total cpu time :   100.2 secs   av.it.:   6.5
      thresh= 1.000E-02 alpha_mix =  0.700 |ddv_scf|^2 =  5.392E-05

      iter #   2 total cpu time :   101.3 secs   av.it.:   9.9
      thresh= 7.343E-04 alpha_mix =  0.700 |ddv_scf|^2 =  4.303E-04

      iter #   3 total cpu time :   102.2 secs   av.it.:   8.6
      thresh= 2.074E-03 alpha_mix =  0.700 |ddv_scf|^2 =  7.923E-08

      iter #   4 total cpu time :   103.8 secs   av.it.:  10.1
      thresh= 2.815E-05 alpha_mix =  0.700 |ddv_scf|^2 =  1.609E-09

      iter #   5 total cpu time :   105.0 secs   av.it.:  10.2
      thresh= 4.012E-06 alpha_mix =  0.700 |ddv_scf|^2 =  1.693E-11

      iter #   6 total cpu time :   106.1 secs   av.it.:  10.6
      thresh= 4.115E-07 alpha_mix =  0.700 |ddv_scf|^2 =  1.427E-12

      iter #   7 total cpu time :   107.1 secs   av.it.:  10.6
      thresh= 1.194E-07 alpha_mix =  0.700 |ddv_scf|^2 =  7.526E-14

      iter #   8 total cpu time :   108.4 secs   av.it.:  10.3
      thresh= 2.743E-08 alpha_mix =  0.700 |ddv_scf|^2 =  4.485E-13

      iter #   9 total cpu time :   109.5 secs   av.it.:   9.0
      thresh= 6.697E-08 alpha_mix =  0.700 |ddv_scf|^2 =  3.652E-15

      iter #  10 total cpu time :   110.4 secs   av.it.:   9.3
      thresh= 6.043E-09 alpha_mix =  0.700 |ddv_scf|^2 =  5.858E-16

     End of self-consistent calculation

     Convergence has been achieved 


     Representation #   2 mode #   2

     Self-consistent Calculation

      iter #   1 total cpu time :   111.3 secs   av.it.:   6.5
      thresh= 1.000E-02 alpha_mix =  0.700 |ddv_scf|^2 =  5.392E-05

      iter #   2 total cpu time :   112.3 secs   av.it.:   9.9
      thresh= 7.343E-04 alpha_mix =  0.700 |ddv_scf|^2 =  4.303E-04

      iter #   3 total cpu time :   113.3 secs   av.it.:   8.6
      thresh= 2.074E-03 alpha_mix =  0.700 |ddv_scf|^2 =  7.923E-08

      iter #   4 total cpu time :   114.3 secs   av.it.:  10.1
      thresh= 2.815E-05 alpha_mix =  0.700 |ddv_scf|^2 =  1.609E-09

      iter #   5 total cpu time :   115.4 secs   av.it.:  10.1
      thresh= 4.012E-06 alpha_mix =  0.700 |ddv_scf|^2 =  1.693E-11

      iter #   6 total cpu time :   116.5 secs   av.it.:  10.6
      thresh= 4.115E-07 alpha_mix =  0.700 |ddv_scf|^2 =  1.427E-12

      iter #   7 total cpu time :   117.8 secs   av.it.:  10.6
      thresh= 1.194E-07 alpha_mix =  0.700 |ddv_scf|^2 =  7.523E-14

      iter #   8 total cpu time :   119.0 secs   av.it.:  10.3
      thresh= 2.743E-08 alpha_mix =  0.700 |ddv_scf|^2 =  4.484E-13

      iter #   9 total cpu time :   120.1 secs   av.it.:   9.0
      thresh= 6.696E-08 alpha_mix =  0.700 |ddv_scf|^2 =  3.648E-15

      iter #  10 total cpu time :   121.1 secs   av.it.:   9.3
      thresh= 6.039E-09 alpha_mix =  0.700 |ddv_scf|^2 =  5.867E-16

     End of self-consistent calculation

     Convergence has been achieved 


     Representation #   3 modes #   3   4

     Self-consistent Calculation

      iter #   1 total cpu time :   122.6 secs   av.it.:   6.1
      thresh= 1.000E-02 alpha_mix =  0.700 |ddv_scf|^2 =  3.025E-08

      iter #   2 total cpu time :   125.1 secs   av.it.:  11.6
      thresh= 1.739E-05 alpha_mix =  0.700 |ddv_scf|^2 =  2.096E-09

      iter #   3 total cpu time :   127.4 secs   av.it.:  11.4
      thresh= 4.578E-06 alpha_mix =  0.700 |ddv_scf|^2 =  3.034E-11

      iter #   4 total cpu time :   129.7 secs   av.it.:  11.6
      thresh= 5.508E-07 alpha_mix =  0.700 |ddv_scf|^2 =  3.043E-13

      iter #   5 total cpu time :   132.5 secs   av.it.:  11.6
      thresh= 5.516E-08 alpha_mix =  0.700 |ddv_scf|^2 =  5.922E-15

      iter #   6 total cpu time :   135.4 secs   av.it.:  11.9
      thresh= 7.695E-09 alpha_mix =  0.700 |ddv_scf|^2 =  4.039E-17

     End of self-consistent calculation

     Convergence has been achieved 


     Representation #   4 modes #   5   6

     Self-consistent Calculation

      iter #   1 total cpu time :   137.0 secs   av.it.:   6.0
      thresh= 1.000E-02 alpha_mix =  0.700 |ddv_scf|^2 =  3.026E-08

      iter #   2 total cpu time :   139.4 secs   av.it.:  11.6
      thresh= 1.740E-05 alpha_mix =  0.700 |ddv_scf|^2 =  2.098E-09

      iter #   3 total cpu time :   141.7 secs   av.it.:  11.4
      thresh= 4.580E-06 alpha_mix =  0.700 |ddv_scf|^2 =  3.033E-11

      iter #   4 total cpu time :   144.0 secs   av.it.:  11.6
      thresh= 5.507E-07 alpha_mix =  0.700 |ddv_scf|^2 =  3.042E-13

      iter #   5 total cpu time :   146.5 secs   av.it.:  11.6
      thresh= 5.515E-08 alpha_mix =  0.700 |ddv_scf|^2 =  5.916E-15

      iter #   6 total cpu time :   148.8 secs   av.it.:  11.9
      thresh= 7.692E-09 alpha_mix =  0.700 |ddv_scf|^2 =  4.034E-17

     End of self-consistent calculation

     Convergence has been achieved 
 
     Number of q in the star =    8
     List of q in the star:
          1  -0.333333333   0.333333333  -0.333333333
          2   0.333333333   0.333333333   0.333333333
          3  -0.333333333  -0.333333333  -0.333333333
          4   0.333333333  -0.333333333   0.333333333
          5   0.333333333  -0.333333333  -0.333333333
          6   0.333333333   0.333333333  -0.333333333
          7  -0.333333333  -0.333333333   0.333333333
          8  -0.333333333   0.333333333   0.333333333

     Diagonalizing the dynamical matrix

     q = (   -0.333333333   0.333333333  -0.333333333 ) 

 **************************************************************************
     freq (    1) =       3.043966 [THz] =     101.535768 [cm-1]
     freq (    2) =       3.043966 [THz] =     101.535768 [cm-1]
     freq (    3) =       8.747154 [THz] =     291.773640 [cm-1]
     freq (    4) =      13.857033 [THz] =     462.220880 [cm-1]
     freq (    5) =      14.763267 [THz] =     492.449584 [cm-1]
     freq (    6) =      14.763267 [THz] =     492.449584 [cm-1]
 **************************************************************************

     Mode symmetry, C_3v (3m)   point group:

     freq (   1-   2) =        101.5  [cm-1]   --> E    L_3           
     freq (   3-   3) =        291.8  [cm-1]   --> A_1  L_1           
     freq (   4-   4) =        462.2  [cm-1]   --> A_1  L_1           
     freq (   5-   6) =        492.4  [cm-1]   --> E    L_3           

     Calculation of q =    0.5000000  -0.5000000   0.5000000
 
     Parallelization info
     --------------------
     sticks:   dense  smooth     PW     G-vecs:    dense   smooth      PW
     Min          55      55     18                 1158     1158     222
     Max          56      56     19                 1161     1161     224
     Sum        1003    1003    337                20875    20875    4015
 
     Using Slab Decomposition
 

     Title: 
     default                                                                    


     bravais-lattice index     =            2
     lattice parameter (alat)  =      10.1899  a.u.
     unit-cell volume          =     264.5151 (a.u.)^3
     number of atoms/cell      =            2
     number of atomic types    =            1
     number of electrons       =         8.00
     number of Kohn-Sham states=            4
     kinetic-energy cutoff     =      70.0000  Ry
     charge density cutoff     =     280.0000  Ry
     Exchange-correlation= PW
                           (   1   4   0   0   0   0   0)

     celldm(1)=  10.189905  celldm(2)=   0.000000  celldm(3)=   0.000000
     celldm(4)=   0.000000  celldm(5)=   0.000000  celldm(6)=   0.000000

     crystal axes: (cart. coord. in units of alat)
               a(1) = (  -0.500000   0.000000   0.500000 )  
               a(2) = (   0.000000   0.500000   0.500000 )  
               a(3) = (  -0.500000   0.500000   0.000000 )  

     reciprocal axes: (cart. coord. in units 2 pi/alat)
               b(1) = ( -1.000000 -1.000000  1.000000 )  
               b(2) = (  1.000000  1.000000  1.000000 )  
               b(3) = ( -1.000000  1.000000 -1.000000 )  


     PseudoPot. # 1 for Si read from file:
     ./pseudos/Si.nc.UPF
     MD5 check sum: 9e2d726316af3d4752eea8ab0afbb951
     Pseudo is Norm-conserving + core correction, Zval =  4.0
     Generated using ONCVPSP code by D. R. Hamann
     Using radial grid of 1510 points,  6 beta functions with: 
                l(1) =   0
                l(2) =   0
                l(3) =   1
                l(4) =   1
                l(5) =   2
                l(6) =   2

     atomic species   valence    mass     pseudopotential
        Si             4.00    28.08550     Si( 1.00)

     48 Sym. Ops., with inversion, found



   Cartesian axes

     site n.     atom                  positions (alat units)
         1           Si  tau(   1) = (   0.0000000   0.0000000   0.0000000  )
         2           Si  tau(   2) = (  -0.2500000   0.2500000   0.2500000  )

     number of k points=   182

     Number of k-points >= 100: set verbosity='high' to print them.

     Dense  grid:    20875 G-vectors     FFT dimensions: (  40,  40,  40)

     Estimated max dynamical RAM per process >       2.02 MB

     Estimated total dynamical RAM >      72.89 MB

     The potential is recalculated from file :
     /fastscratch/tsievers/QE_TMP_DIR/_ph0/si_ph_bench_poolsize_18_n_procs_36_0.save/charge-density

     Starting wfcs are    8 atomic wfcs

     Band Structure Calculation
     Davidson diagonalization with overlap

     ethr =  1.25E-10,  avg # of iterations = 12.9

     total cpu time spent up to now is       17.5 secs

     End of band structure calculation

     Number of k-points >= 100: set verbosity='high' to print the bands.

     highest occupied level (ev):     6.1106

     Writing config to output data dir /fastscratch/tsievers/QE_TMP_DIR/_ph0/si_ph_bench_poolsize_18_n_procs_36_0.save/

     default                                                                    

     bravais-lattice index     =            2
     lattice parameter (alat)  =      10.1899  a.u.
     unit-cell volume          =     264.5151 (a.u.)^3
     number of atoms/cell      =            2
     number of atomic types    =            1
     kinetic-energy cut-off    =      70.0000  Ry
     charge density cut-off    =     280.0000  Ry
     convergence threshold     =      1.0E-15
     beta                      =       0.7000
     number of iterations used =            4
     Exchange-correlation= PW
                           (   1   4   0   0   0   0   0)


     celldm(1)=   10.18990  celldm(2)=    0.00000  celldm(3)=    0.00000
     celldm(4)=    0.00000  celldm(5)=    0.00000  celldm(6)=    0.00000

     crystal axes: (cart. coord. in units of alat)
               a(1) = ( -0.5000  0.0000  0.5000 )  
               a(2) = (  0.0000  0.5000  0.5000 )  
               a(3) = ( -0.5000  0.5000  0.0000 )  

     reciprocal axes: (cart. coord. in units 2 pi/alat)
               b(1) = ( -1.0000 -1.0000  1.0000 )  
               b(2) = (  1.0000  1.0000  1.0000 )  
               b(3) = ( -1.0000  1.0000 -1.0000 )  


     Atoms inside the unit cell: 

     Cartesian axes

     site n.  atom      mass           positions (alat units)
        1     Si  28.0855   tau(    1) = (    0.00000    0.00000    0.00000  )
        2     Si  28.0855   tau(    2) = (   -0.25000    0.25000    0.25000  )

     Computing dynamical matrix for 
                    q = (   0.5000000  -0.5000000   0.5000000 )
 
     13 Sym.Ops. (with q -> -q+G )


     G cutoff =  736.4420  (   1161 G-vectors)     FFT grid: ( 40, 40, 40)
     number of k points=   182

     PseudoPot. # 1 for Si read from file:
     ./pseudos/Si.nc.UPF
     MD5 check sum: 9e2d726316af3d4752eea8ab0afbb951
     Pseudo is Norm-conserving + core correction, Zval =  4.0
     Generated using ONCVPSP code by D. R. Hamann
     Using radial grid of 1510 points,  6 beta functions with: 
                l(1) =   0
                l(2) =   0
                l(3) =   1
                l(4) =   1
                l(5) =   2
                l(6) =   2


     Atomic displacements:
     There are    4 irreducible representations

     Representation     1      1 modes -  To be done

     Representation     2      1 modes -  To be done

     Representation     3      2 modes -  To be done

     Representation     4      2 modes -  To be done



     Alpha used in Ewald sum =   2.8000
     PHONON       :   2m 0.31s CPU   2m33.24s WALL



     Representation #   1 mode #   1

     Self-consistent Calculation

      iter #   1 total cpu time :   153.6 secs   av.it.:   5.8
      thresh= 1.000E-02 alpha_mix =  0.700 |ddv_scf|^2 =  1.725E-06

      iter #   2 total cpu time :   154.2 secs   av.it.:  10.2
      thresh= 1.313E-04 alpha_mix =  0.700 |ddv_scf|^2 =  1.591E-06

      iter #   3 total cpu time :   154.8 secs   av.it.:   9.6
      thresh= 1.261E-04 alpha_mix =  0.700 |ddv_scf|^2 =  2.124E-10

      iter #   4 total cpu time :   156.1 secs   av.it.:  10.3
      thresh= 1.457E-06 alpha_mix =  0.700 |ddv_scf|^2 =  3.647E-12

      iter #   5 total cpu time :   157.2 secs   av.it.:  10.1
      thresh= 1.910E-07 alpha_mix =  0.700 |ddv_scf|^2 =  5.251E-14

      iter #   6 total cpu time :   157.7 secs   av.it.:  10.1
      thresh= 2.292E-08 alpha_mix =  0.700 |ddv_scf|^2 =  6.896E-16

     End of self-consistent calculation

     Convergence has been achieved 


     Representation #   2 mode #   2

     Self-consistent Calculation

      iter #   1 total cpu time :   158.2 secs   av.it.:   6.7
      thresh= 1.000E-02 alpha_mix =  0.700 |ddv_scf|^2 =  2.635E-05

      iter #   2 total cpu time :   159.0 secs   av.it.:  10.3
      thresh= 5.133E-04 alpha_mix =  0.700 |ddv_scf|^2 =  8.609E-05

      iter #   3 total cpu time :   159.7 secs   av.it.:   9.3
      thresh= 9.278E-04 alpha_mix =  0.700 |ddv_scf|^2 =  5.088E-09

      iter #   4 total cpu time :   160.4 secs   av.it.:  10.0
      thresh= 7.133E-06 alpha_mix =  0.700 |ddv_scf|^2 =  1.068E-10

      iter #   5 total cpu time :   161.1 secs   av.it.:  10.5
      thresh= 1.034E-06 alpha_mix =  0.700 |ddv_scf|^2 =  5.333E-12

      iter #   6 total cpu time :   161.7 secs   av.it.:  10.3
      thresh= 2.309E-07 alpha_mix =  0.700 |ddv_scf|^2 =  1.503E-13

      iter #   7 total cpu time :   162.2 secs   av.it.:   9.7
      thresh= 3.877E-08 alpha_mix =  0.700 |ddv_scf|^2 =  2.734E-17

     End of self-consistent calculation

     Convergence has been achieved 


     Representation #   3 modes #   3   4

     Self-consistent Calculation

      iter #   1 total cpu time :   163.0 secs   av.it.:   6.1
      thresh= 1.000E-02 alpha_mix =  0.700 |ddv_scf|^2 =  6.089E-08

      iter #   2 total cpu time :   164.5 secs   av.it.:  11.5
      thresh= 2.468E-05 alpha_mix =  0.700 |ddv_scf|^2 =  5.162E-09

      iter #   3 total cpu time :   165.7 secs   av.it.:  11.3
      thresh= 7.185E-06 alpha_mix =  0.700 |ddv_scf|^2 =  3.456E-11

      iter #   4 total cpu time :   167.1 secs   av.it.:  11.4
      thresh= 5.879E-07 alpha_mix =  0.700 |ddv_scf|^2 =  3.864E-14

      iter #   5 total cpu time :   168.3 secs   av.it.:  11.7
      thresh= 1.966E-08 alpha_mix =  0.700 |ddv_scf|^2 =  5.086E-16

     End of self-consistent calculation

     Convergence has been achieved 


     Representation #   4 modes #   5   6

     Self-consistent Calculation

      iter #   1 total cpu time :   169.3 secs   av.it.:   5.5
      thresh= 1.000E-02 alpha_mix =  0.700 |ddv_scf|^2 =  6.911E-09

      iter #   2 total cpu time :   170.7 secs   av.it.:  11.5
      thresh= 8.313E-06 alpha_mix =  0.700 |ddv_scf|^2 =  1.812E-10

      iter #   3 total cpu time :   171.9 secs   av.it.:  11.5
      thresh= 1.346E-06 alpha_mix =  0.700 |ddv_scf|^2 =  1.114E-11

      iter #   4 total cpu time :   173.2 secs   av.it.:  11.5
      thresh= 3.338E-07 alpha_mix =  0.700 |ddv_scf|^2 =  4.764E-14

      iter #   5 total cpu time :   174.3 secs   av.it.:  11.5
      thresh= 2.183E-08 alpha_mix =  0.700 |ddv_scf|^2 =  7.616E-16

     End of self-consistent calculation

     Convergence has been achieved 
 
     Number of q in the star =    4
     List of q in the star:
          1   0.500000000  -0.500000000   0.500000000
          2   0.500000000   0.500000000   0.500000000
          3  -0.500000000   0.500000000   0.500000000
          4   0.500000000   0.500000000  -0.500000000

     Diagonalizing the dynamical matrix

     q = (    0.500000000  -0.500000000   0.500000000 ) 

 **************************************************************************
     freq (    1) =       3.157056 [THz] =     105.308063 [cm-1]
     freq (    2) =       3.157056 [THz] =     105.308063 [cm-1]
     freq (    3) =      11.169049 [THz] =     372.559371 [cm-1]
     freq (    4) =      12.390606 [THz] =     413.306138 [cm-1]
     freq (    5) =      14.704231 [THz] =     490.480355 [cm-1]
     freq (    6) =      14.704231 [THz] =     490.480355 [cm-1]
 **************************************************************************

     Calculation of q =    0.0000000   0.3333333   0.0000000
 
     Parallelization info
     --------------------
     sticks:   dense  smooth     PW     G-vecs:    dense   smooth      PW
     Min          55      55     17                 1158     1158     206
     Max          56      56     18                 1161     1161     209
     Sum        1003    1003    313                20875    20875    3719
 
     Using Slab Decomposition
 

     Title: 
     default                                                                    


     bravais-lattice index     =            2
     lattice parameter (alat)  =      10.1899  a.u.
     unit-cell volume          =     264.5151 (a.u.)^3
     number of atoms/cell      =            2
     number of atomic types    =            1
     number of electrons       =         8.00
     number of Kohn-Sham states=            4
     kinetic-energy cutoff     =      70.0000  Ry
     charge density cutoff     =     280.0000  Ry
     Exchange-correlation= PW
                           (   1   4   0   0   0   0   0)

     celldm(1)=  10.189905  celldm(2)=   0.000000  celldm(3)=   0.000000
     celldm(4)=   0.000000  celldm(5)=   0.000000  celldm(6)=   0.000000

     crystal axes: (cart. coord. in units of alat)
               a(1) = (  -0.500000   0.000000   0.500000 )  
               a(2) = (   0.000000   0.500000   0.500000 )  
               a(3) = (  -0.500000   0.500000   0.000000 )  

     reciprocal axes: (cart. coord. in units 2 pi/alat)
               b(1) = ( -1.000000 -1.000000  1.000000 )  
               b(2) = (  1.000000  1.000000  1.000000 )  
               b(3) = ( -1.000000  1.000000 -1.000000 )  


     PseudoPot. # 1 for Si read from file:
     ./pseudos/Si.nc.UPF
     MD5 check sum: 9e2d726316af3d4752eea8ab0afbb951
     Pseudo is Norm-conserving + core correction, Zval =  4.0
     Generated using ONCVPSP code by D. R. Hamann
     Using radial grid of 1510 points,  6 beta functions with: 
                l(1) =   0
                l(2) =   0
                l(3) =   1
                l(4) =   1
                l(5) =   2
                l(6) =   2

     atomic species   valence    mass     pseudopotential
        Si             4.00    28.08550     Si( 1.00)

     48 Sym. Ops., with inversion, found



   Cartesian axes

     site n.     atom                  positions (alat units)
         1           Si  tau(   1) = (   0.0000000   0.0000000   0.0000000  )
         2           Si  tau(   2) = (  -0.2500000   0.2500000   0.2500000  )

     number of k points=   252

     Number of k-points >= 100: set verbosity='high' to print them.

     Dense  grid:    20875 G-vectors     FFT dimensions: (  40,  40,  40)

     Estimated max dynamical RAM per process >       2.00 MB

     Estimated total dynamical RAM >      71.94 MB

     The potential is recalculated from file :
     /fastscratch/tsievers/QE_TMP_DIR/_ph0/si_ph_bench_poolsize_18_n_procs_36_0.save/charge-density

     Starting wfcs are    8 atomic wfcs

     Band Structure Calculation
     Davidson diagonalization with overlap

     ethr =  1.25E-10,  avg # of iterations = 12.8

     total cpu time spent up to now is       22.3 secs

     End of band structure calculation

     Number of k-points >= 100: set verbosity='high' to print the bands.

     highest occupied level (ev):     6.1106

     Writing config to output data dir /fastscratch/tsievers/QE_TMP_DIR/_ph0/si_ph_bench_poolsize_18_n_procs_36_0.save/

     default                                                                    

     bravais-lattice index     =            2
     lattice parameter (alat)  =      10.1899  a.u.
     unit-cell volume          =     264.5151 (a.u.)^3
     number of atoms/cell      =            2
     number of atomic types    =            1
     kinetic-energy cut-off    =      70.0000  Ry
     charge density cut-off    =     280.0000  Ry
     convergence threshold     =      1.0E-15
     beta                      =       0.7000
     number of iterations used =            4
     Exchange-correlation= PW
                           (   1   4   0   0   0   0   0)


     celldm(1)=   10.18990  celldm(2)=    0.00000  celldm(3)=    0.00000
     celldm(4)=    0.00000  celldm(5)=    0.00000  celldm(6)=    0.00000

     crystal axes: (cart. coord. in units of alat)
               a(1) = ( -0.5000  0.0000  0.5000 )  
               a(2) = (  0.0000  0.5000  0.5000 )  
               a(3) = ( -0.5000  0.5000  0.0000 )  

     reciprocal axes: (cart. coord. in units 2 pi/alat)
               b(1) = ( -1.0000 -1.0000  1.0000 )  
               b(2) = (  1.0000  1.0000  1.0000 )  
               b(3) = ( -1.0000  1.0000 -1.0000 )  


     Atoms inside the unit cell: 

     Cartesian axes

     site n.  atom      mass           positions (alat units)
        1     Si  28.0855   tau(    1) = (    0.00000    0.00000    0.00000  )
        2     Si  28.0855   tau(    2) = (   -0.25000    0.25000    0.25000  )

     Computing dynamical matrix for 
                    q = (   0.0000000   0.3333333   0.0000000 )
 
      8 Sym.Ops. (no q -> -q+G )


     G cutoff =  736.4420  (   1161 G-vectors)     FFT grid: ( 40, 40, 40)
     number of k points=   252

     PseudoPot. # 1 for Si read from file:
     ./pseudos/Si.nc.UPF
     MD5 check sum: 9e2d726316af3d4752eea8ab0afbb951
     Pseudo is Norm-conserving + core correction, Zval =  4.0
     Generated using ONCVPSP code by D. R. Hamann
     Using radial grid of 1510 points,  6 beta functions with: 
                l(1) =   0
                l(2) =   0
                l(3) =   1
                l(4) =   1
                l(5) =   2
                l(6) =   2

     Mode symmetry, C_4v (4mm)  point group:


     Atomic displacements:
     There are    4 irreducible representations

     Representation     1      1 modes -  To be done

     Representation     2      1 modes -  To be done

     Representation     3      2 modes -  To be done

     Representation     4      2 modes -  To be done



     Alpha used in Ewald sum =   2.8000
     PHONON       :   2m22.99s CPU   2m59.88s WALL



     Representation #   1 mode #   1

     Self-consistent Calculation

      iter #   1 total cpu time :   180.4 secs   av.it.:   6.8
      thresh= 1.000E-02 alpha_mix =  0.700 |ddv_scf|^2 =  1.144E-03

      iter #   2 total cpu time :   181.4 secs   av.it.:   9.4
      thresh= 3.382E-03 alpha_mix =  0.700 |ddv_scf|^2 =  3.487E-02

      iter #   3 total cpu time :   182.3 secs   av.it.:   8.0
      thresh= 1.000E-02 alpha_mix =  0.700 |ddv_scf|^2 =  3.210E-08

      iter #   4 total cpu time :   183.1 secs   av.it.:   9.2
      thresh= 1.792E-05 alpha_mix =  0.700 |ddv_scf|^2 =  1.534E-09

      iter #   5 total cpu time :   185.0 secs   av.it.:   8.9
      thresh= 3.916E-06 alpha_mix =  0.700 |ddv_scf|^2 =  4.972E-10

      iter #   6 total cpu time :   185.8 secs   av.it.:   8.5
      thresh= 2.230E-06 alpha_mix =  0.700 |ddv_scf|^2 =  6.785E-13

      iter #   7 total cpu time :   186.7 secs   av.it.:   8.7
      thresh= 8.237E-08 alpha_mix =  0.700 |ddv_scf|^2 =  1.489E-14

      iter #   8 total cpu time :   187.4 secs   av.it.:   8.6
      thresh= 1.220E-08 alpha_mix =  0.700 |ddv_scf|^2 =  1.984E-16

     End of self-consistent calculation

     Convergence has been achieved 


     Representation #   2 mode #   2

     Self-consistent Calculation

      iter #   1 total cpu time :   189.5 secs   av.it.:   5.9
      thresh= 1.000E-02 alpha_mix =  0.700 |ddv_scf|^2 =  1.746E-07

      iter #   2 total cpu time :   190.5 secs   av.it.:  10.7
      thresh= 4.178E-05 alpha_mix =  0.700 |ddv_scf|^2 =  2.824E-08

      iter #   3 total cpu time :   191.3 secs   av.it.:  10.5
      thresh= 1.680E-05 alpha_mix =  0.700 |ddv_scf|^2 =  3.570E-10

      iter #   4 total cpu time :   192.5 secs   av.it.:  10.5
      thresh= 1.889E-06 alpha_mix =  0.700 |ddv_scf|^2 =  1.483E-11

      iter #   5 total cpu time :   193.3 secs   av.it.:  10.6
      thresh= 3.851E-07 alpha_mix =  0.700 |ddv_scf|^2 =  3.380E-14

      iter #   6 total cpu time :   194.1 secs   av.it.:  10.7
      thresh= 1.838E-08 alpha_mix =  0.700 |ddv_scf|^2 =  6.742E-16

     End of self-consistent calculation

     Convergence has been achieved 


     Representation #   3 modes #   3   4

     Self-consistent Calculation

      iter #   1 total cpu time :   195.2 secs   av.it.:   6.0
      thresh= 1.000E-02 alpha_mix =  0.700 |ddv_scf|^2 =  3.160E-08

      iter #   2 total cpu time :   196.9 secs   av.it.:  11.6
      thresh= 1.778E-05 alpha_mix =  0.700 |ddv_scf|^2 =  2.880E-09

      iter #   3 total cpu time :   198.5 secs   av.it.:  11.4
      thresh= 5.367E-06 alpha_mix =  0.700 |ddv_scf|^2 =  3.357E-11

      iter #   4 total cpu time :   200.2 secs   av.it.:  11.6
      thresh= 5.794E-07 alpha_mix =  0.700 |ddv_scf|^2 =  3.776E-13

      iter #   5 total cpu time :   201.9 secs   av.it.:  11.5
      thresh= 6.145E-08 alpha_mix =  0.700 |ddv_scf|^2 =  6.268E-15

      iter #   6 total cpu time :   203.5 secs   av.it.:  11.9
      thresh= 7.917E-09 alpha_mix =  0.700 |ddv_scf|^2 =  2.552E-17

     End of self-consistent calculation

     Convergence has been achieved 


     Representation #   4 modes #   5   6

     Self-consistent Calculation

      iter #   1 total cpu time :   205.1 secs   av.it.:   6.0
      thresh= 1.000E-02 alpha_mix =  0.700 |ddv_scf|^2 =  4.166E-08

      iter #   2 total cpu time :   206.9 secs   av.it.:  11.5
      thresh= 2.041E-05 alpha_mix =  0.700 |ddv_scf|^2 =  3.928E-09

      iter #   3 total cpu time :   208.5 secs   av.it.:  11.2
      thresh= 6.268E-06 alpha_mix =  0.700 |ddv_scf|^2 =  3.554E-11

      iter #   4 total cpu time :   210.3 secs   av.it.:  11.5
      thresh= 5.962E-07 alpha_mix =  0.700 |ddv_scf|^2 =  2.416E-13

      iter #   5 total cpu time :   212.7 secs   av.it.:  11.4
      thresh= 4.915E-08 alpha_mix =  0.700 |ddv_scf|^2 =  5.738E-15

      iter #   6 total cpu time :   214.3 secs   av.it.:  11.9
      thresh= 7.575E-09 alpha_mix =  0.700 |ddv_scf|^2 =  2.429E-17

     End of self-consistent calculation

     Convergence has been achieved 
 
     Number of q in the star =    6
     List of q in the star:
          1   0.000000000   0.333333333   0.000000000
          2   0.333333333   0.000000000   0.000000000
          3   0.000000000   0.000000000   0.333333333
          4   0.000000000  -0.333333333   0.000000000
          5  -0.333333333   0.000000000   0.000000000
          6   0.000000000   0.000000000  -0.333333333

     Diagonalizing the dynamical matrix

     q = (    0.000000000   0.333333333   0.000000000 ) 

 **************************************************************************
     freq (    1) =       2.948308 [THz] =      98.344959 [cm-1]
     freq (    2) =       2.948308 [THz] =      98.344959 [cm-1]
     freq (    3) =       4.953237 [THz] =     165.222208 [cm-1]
     freq (    4) =      14.670245 [THz] =     489.346701 [cm-1]
     freq (    5) =      14.670245 [THz] =     489.346701 [cm-1]
     freq (    6) =      15.142858 [THz] =     505.111378 [cm-1]
 **************************************************************************

     Mode symmetry, C_4v (4mm)  point group:

     freq (   1-   2) =         98.3  [cm-1]   --> E    G_5 D_5       
     freq (   3-   3) =        165.2  [cm-1]   --> A_1  G_1 D_1       
     freq (   4-   5) =        489.3  [cm-1]   --> E    G_5 D_5       
     freq (   6-   6) =        505.1  [cm-1]   --> B_2  G_4 D_2'      

     Calculation of q =   -0.1666667   0.5000000  -0.1666667
 
     Parallelization info
     --------------------
     sticks:   dense  smooth     PW     G-vecs:    dense   smooth      PW
     Min          55      55     17                 1158     1158     211
     Max          56      56     18                 1161     1161     216
     Sum        1003    1003    313                20875    20875    3839
 
     Using Slab Decomposition
 

     Title: 
     default                                                                    


     bravais-lattice index     =            2
     lattice parameter (alat)  =      10.1899  a.u.
     unit-cell volume          =     264.5151 (a.u.)^3
     number of atoms/cell      =            2
     number of atomic types    =            1
     number of electrons       =         8.00
     number of Kohn-Sham states=            4
     kinetic-energy cutoff     =      70.0000  Ry
     charge density cutoff     =     280.0000  Ry
     Exchange-correlation= PW
                           (   1   4   0   0   0   0   0)

     celldm(1)=  10.189905  celldm(2)=   0.000000  celldm(3)=   0.000000
     celldm(4)=   0.000000  celldm(5)=   0.000000  celldm(6)=   0.000000

     crystal axes: (cart. coord. in units of alat)
               a(1) = (  -0.500000   0.000000   0.500000 )  
               a(2) = (   0.000000   0.500000   0.500000 )  
               a(3) = (  -0.500000   0.500000   0.000000 )  

     reciprocal axes: (cart. coord. in units 2 pi/alat)
               b(1) = ( -1.000000 -1.000000  1.000000 )  
               b(2) = (  1.000000  1.000000  1.000000 )  
               b(3) = ( -1.000000  1.000000 -1.000000 )  


     PseudoPot. # 1 for Si read from file:
     ./pseudos/Si.nc.UPF
     MD5 check sum: 9e2d726316af3d4752eea8ab0afbb951
     Pseudo is Norm-conserving + core correction, Zval =  4.0
     Generated using ONCVPSP code by D. R. Hamann
     Using radial grid of 1510 points,  6 beta functions with: 
                l(1) =   0
                l(2) =   0
                l(3) =   1
                l(4) =   1
                l(5) =   2
                l(6) =   2

     atomic species   valence    mass     pseudopotential
        Si             4.00    28.08550     Si( 1.00)

     48 Sym. Ops., with inversion, found



   Cartesian axes

     site n.     atom                  positions (alat units)
         1           Si  tau(   1) = (   0.0000000   0.0000000   0.0000000  )
         2           Si  tau(   2) = (  -0.2500000   0.2500000   0.2500000  )

     number of k points=   936

     Number of k-points >= 100: set verbosity='high' to print them.

     Dense  grid:    20875 G-vectors     FFT dimensions: (  40,  40,  40)

     Estimated max dynamical RAM per process >       2.01 MB

     Estimated total dynamical RAM >      72.35 MB

     The potential is recalculated from file :
     /fastscratch/tsievers/QE_TMP_DIR/_ph0/si_ph_bench_poolsize_18_n_procs_36_0.save/charge-density

     Starting wfcs are    8 atomic wfcs

     Band Structure Calculation
     Davidson diagonalization with overlap

     ethr =  1.25E-10,  avg # of iterations = 12.8

     total cpu time spent up to now is       40.3 secs

     End of band structure calculation

     Number of k-points >= 100: set verbosity='high' to print the bands.

     highest occupied level (ev):     6.1106

     Writing config to output data dir /fastscratch/tsievers/QE_TMP_DIR/_ph0/si_ph_bench_poolsize_18_n_procs_36_0.save/

     default                                                                    

     bravais-lattice index     =            2
     lattice parameter (alat)  =      10.1899  a.u.
     unit-cell volume          =     264.5151 (a.u.)^3
     number of atoms/cell      =            2
     number of atomic types    =            1
     kinetic-energy cut-off    =      70.0000  Ry
     charge density cut-off    =     280.0000  Ry
     convergence threshold     =      1.0E-15
     beta                      =       0.7000
     number of iterations used =            4
     Exchange-correlation= PW
                           (   1   4   0   0   0   0   0)


     celldm(1)=   10.18990  celldm(2)=    0.00000  celldm(3)=    0.00000
     celldm(4)=    0.00000  celldm(5)=    0.00000  celldm(6)=    0.00000

     crystal axes: (cart. coord. in units of alat)
               a(1) = ( -0.5000  0.0000  0.5000 )  
               a(2) = (  0.0000  0.5000  0.5000 )  
               a(3) = ( -0.5000  0.5000  0.0000 )  

     reciprocal axes: (cart. coord. in units 2 pi/alat)
               b(1) = ( -1.0000 -1.0000  1.0000 )  
               b(2) = (  1.0000  1.0000  1.0000 )  
[...]
      thresh= 1.000E-02 alpha_mix =  0.700 |ddv_scf|^2 =  2.953E-06

      iter #   2 total cpu time :  1378.3 secs   av.it.:  11.1
      thresh= 1.719E-04 alpha_mix =  0.700 |ddv_scf|^2 =  3.745E-06

      iter #   3 total cpu time :  1380.7 secs   av.it.:  10.2
      thresh= 1.935E-04 alpha_mix =  0.700 |ddv_scf|^2 =  4.286E-08

      iter #   4 total cpu time :  1383.2 secs   av.it.:  10.4
      thresh= 2.070E-05 alpha_mix =  0.700 |ddv_scf|^2 =  2.156E-10

      iter #   5 total cpu time :  1386.1 secs   av.it.:  10.8
      thresh= 1.468E-06 alpha_mix =  0.700 |ddv_scf|^2 =  5.467E-12

      iter #   6 total cpu time :  1391.3 secs   av.it.:  10.9
      thresh= 2.338E-07 alpha_mix =  0.700 |ddv_scf|^2 =  3.207E-14

      iter #   7 total cpu time :  1393.8 secs   av.it.:  10.7
      thresh= 1.791E-08 alpha_mix =  0.700 |ddv_scf|^2 =  3.571E-15

      iter #   8 total cpu time :  1396.4 secs   av.it.:  10.8
      thresh= 5.976E-09 alpha_mix =  0.700 |ddv_scf|^2 =  1.275E-16

     End of self-consistent calculation

     Convergence has been achieved 


     Representation #   6 mode #   6

     Self-consistent Calculation

      iter #   1 total cpu time :  1398.2 secs   av.it.:   6.3
      thresh= 1.000E-02 alpha_mix =  0.700 |ddv_scf|^2 =  1.388E-06

      iter #   2 total cpu time :  1400.8 secs   av.it.:  11.0
      thresh= 1.178E-04 alpha_mix =  0.700 |ddv_scf|^2 =  1.522E-06

      iter #   3 total cpu time :  1403.2 secs   av.it.:  10.2
      thresh= 1.234E-04 alpha_mix =  0.700 |ddv_scf|^2 =  3.726E-08

      iter #   4 total cpu time :  1406.1 secs   av.it.:  10.3
      thresh= 1.930E-05 alpha_mix =  0.700 |ddv_scf|^2 =  1.216E-10

      iter #   5 total cpu time :  1408.6 secs   av.it.:  10.7
      thresh= 1.103E-06 alpha_mix =  0.700 |ddv_scf|^2 =  2.290E-12

      iter #   6 total cpu time :  1411.2 secs   av.it.:  10.8
      thresh= 1.513E-07 alpha_mix =  0.700 |ddv_scf|^2 =  1.070E-14

      iter #   7 total cpu time :  1413.7 secs   av.it.:  10.8
      thresh= 1.034E-08 alpha_mix =  0.700 |ddv_scf|^2 =  6.102E-16

     End of self-consistent calculation

     Convergence has been achieved 
 
     Number of q in the star =   24
     List of q in the star:
          1   0.500000000  -0.166666667   0.833333333
          2   0.833333333   0.166666667   0.500000000
          3   0.500000000   0.166666667   0.833333333
          4  -0.833333333  -0.166666667   0.500000000
          5  -0.833333333  -0.166666667  -0.500000000
          6  -0.500000000  -0.166666667  -0.833333333
          7   0.833333333  -0.166666667   0.500000000
          8  -0.500000000  -0.166666667   0.833333333
          9  -0.833333333   0.166666667   0.500000000
         10   0.833333333   0.166666667  -0.500000000
         11   0.833333333  -0.166666667  -0.500000000
         12   0.500000000   0.166666667  -0.833333333
         13  -0.500000000   0.166666667   0.833333333
         14  -0.500000000   0.166666667  -0.833333333
         15  -0.833333333   0.166666667  -0.500000000
         16   0.833333333  -0.500000000   0.166666667
         17   0.833333333   0.500000000  -0.166666667
         18  -0.833333333  -0.500000000  -0.166666667
         19  -0.833333333   0.500000000   0.166666667
         20   0.166666667  -0.500000000   0.833333333
         21  -0.166666667   0.500000000   0.833333333
         22   0.166666667   0.500000000  -0.833333333
         23  -0.166666667  -0.500000000  -0.833333333
         24  -0.500000000   0.833333333   0.166666667

     Diagonalizing the dynamical matrix

     q = (    0.500000000  -0.166666667   0.833333333 ) 

 **************************************************************************
     freq (    1) =       5.051923 [THz] =     168.514011 [cm-1]
     freq (    2) =       6.066418 [THz] =     202.353922 [cm-1]
     freq (    3) =       9.812667 [THz] =     327.315328 [cm-1]
     freq (    4) =      11.453287 [THz] =     382.040516 [cm-1]
     freq (    5) =      14.041975 [THz] =     468.389877 [cm-1]
     freq (    6) =      14.270686 [THz] =     476.018852 [cm-1]
 **************************************************************************

     Calculation of q =   -0.3333333  -1.0000000   0.0000000
 
     Parallelization info
     --------------------
     sticks:   dense  smooth     PW     G-vecs:    dense   smooth      PW
     Min          55      55     19                 1158     1158     236
     Max          56      56     20                 1161     1161     239
     Sum        1003    1003    349                20875    20875    4279
 
     Using Slab Decomposition
 

     Title: 
     default                                                                    


     bravais-lattice index     =            2
     lattice parameter (alat)  =      10.1899  a.u.
     unit-cell volume          =     264.5151 (a.u.)^3
     number of atoms/cell      =            2
     number of atomic types    =            1
     number of electrons       =         8.00
     number of Kohn-Sham states=            4
     kinetic-energy cutoff     =      70.0000  Ry
     charge density cutoff     =     280.0000  Ry
     Exchange-correlation= PW
                           (   1   4   0   0   0   0   0)

     celldm(1)=  10.189905  celldm(2)=   0.000000  celldm(3)=   0.000000
     celldm(4)=   0.000000  celldm(5)=   0.000000  celldm(6)=   0.000000

     crystal axes: (cart. coord. in units of alat)
               a(1) = (  -0.500000   0.000000   0.500000 )  
               a(2) = (   0.000000   0.500000   0.500000 )  
               a(3) = (  -0.500000   0.500000   0.000000 )  

     reciprocal axes: (cart. coord. in units 2 pi/alat)
               b(1) = ( -1.000000 -1.000000  1.000000 )  
               b(2) = (  1.000000  1.000000  1.000000 )  
               b(3) = ( -1.000000  1.000000 -1.000000 )  


     PseudoPot. # 1 for Si read from file:
     ./pseudos/Si.nc.UPF
     MD5 check sum: 9e2d726316af3d4752eea8ab0afbb951
     Pseudo is Norm-conserving + core correction, Zval =  4.0
     Generated using ONCVPSP code by D. R. Hamann
     Using radial grid of 1510 points,  6 beta functions with: 
                l(1) =   0
                l(2) =   0
                l(3) =   1
                l(4) =   1
                l(5) =   2
                l(6) =   2

     atomic species   valence    mass     pseudopotential
        Si             4.00    28.08550     Si( 1.00)

     48 Sym. Ops., with inversion, found



   Cartesian axes

     site n.     atom                  positions (alat units)
         1           Si  tau(   1) = (   0.0000000   0.0000000   0.0000000  )
         2           Si  tau(   2) = (  -0.2500000   0.2500000   0.2500000  )

     number of k points=   432

     Number of k-points >= 100: set verbosity='high' to print them.

     Dense  grid:    20875 G-vectors     FFT dimensions: (  40,  40,  40)

     Estimated max dynamical RAM per process >       2.03 MB

     Estimated total dynamical RAM >      73.24 MB

     The potential is recalculated from file :
     /fastscratch/tsievers/QE_TMP_DIR/_ph0/si_ph_bench_poolsize_18_n_procs_36_0.save/charge-density

     Starting wfcs are    8 atomic wfcs

     Band Structure Calculation
     Davidson diagonalization with overlap

     ethr =  1.25E-10,  avg # of iterations = 12.8

     total cpu time spent up to now is      163.8 secs

     End of band structure calculation

     Number of k-points >= 100: set verbosity='high' to print the bands.

     highest occupied level (ev):     6.1106

     Writing config to output data dir /fastscratch/tsievers/QE_TMP_DIR/_ph0/si_ph_bench_poolsize_18_n_procs_36_0.save/

     default                                                                    

     bravais-lattice index     =            2
     lattice parameter (alat)  =      10.1899  a.u.
     unit-cell volume          =     264.5151 (a.u.)^3
     number of atoms/cell      =            2
     number of atomic types    =            1
     kinetic-energy cut-off    =      70.0000  Ry
     charge density cut-off    =     280.0000  Ry
     convergence threshold     =      1.0E-15
     beta                      =       0.7000
     number of iterations used =            4
     Exchange-correlation= PW
                           (   1   4   0   0   0   0   0)


     celldm(1)=   10.18990  celldm(2)=    0.00000  celldm(3)=    0.00000
     celldm(4)=    0.00000  celldm(5)=    0.00000  celldm(6)=    0.00000

     crystal axes: (cart. coord. in units of alat)
               a(1) = ( -0.5000  0.0000  0.5000 )  
               a(2) = (  0.0000  0.5000  0.5000 )  
               a(3) = ( -0.5000  0.5000  0.0000 )  

     reciprocal axes: (cart. coord. in units 2 pi/alat)
               b(1) = ( -1.0000 -1.0000  1.0000 )  
               b(2) = (  1.0000  1.0000  1.0000 )  
               b(3) = ( -1.0000  1.0000 -1.0000 )  


     Atoms inside the unit cell: 

     Cartesian axes

     site n.  atom      mass           positions (alat units)
        1     Si  28.0855   tau(    1) = (    0.00000    0.00000    0.00000  )
        2     Si  28.0855   tau(    2) = (   -0.25000    0.25000    0.25000  )

     Computing dynamical matrix for 
                    q = (  -0.3333333  -1.0000000   0.0000000 )
 
      4 Sym.Ops. (no q -> -q+G )


     G cutoff =  736.4420  (   1161 G-vectors)     FFT grid: ( 40, 40, 40)
     number of k points=   432

     PseudoPot. # 1 for Si read from file:
     ./pseudos/Si.nc.UPF
     MD5 check sum: 9e2d726316af3d4752eea8ab0afbb951
     Pseudo is Norm-conserving + core correction, Zval =  4.0
     Generated using ONCVPSP code by D. R. Hamann
     Using radial grid of 1510 points,  6 beta functions with: 
                l(1) =   0
                l(2) =   0
                l(3) =   1
                l(4) =   1
                l(5) =   2
                l(6) =   2


     Atomic displacements:
     There are    3 irreducible representations

     Representation     1      2 modes -  To be done

     Representation     2      2 modes -  To be done

     Representation     3      2 modes -  To be done



     Alpha used in Ewald sum =   2.8000
     PHONON       :  20m29.86s CPU  23m45.41s WALL



     Representation #   1 modes #   1   2

     Self-consistent Calculation

      iter #   1 total cpu time :  1427.3 secs   av.it.:   6.2
      thresh= 1.000E-02 alpha_mix =  0.700 |ddv_scf|^2 =  2.767E-07

      iter #   2 total cpu time :  1430.0 secs   av.it.:  11.7
      thresh= 5.260E-05 alpha_mix =  0.700 |ddv_scf|^2 =  3.085E-07

      iter #   3 total cpu time :  1433.0 secs   av.it.:  11.1
      thresh= 5.554E-05 alpha_mix =  0.700 |ddv_scf|^2 =  2.513E-09

      iter #   4 total cpu time :  1435.7 secs   av.it.:  11.2
      thresh= 5.013E-06 alpha_mix =  0.700 |ddv_scf|^2 =  5.097E-11

      iter #   5 total cpu time :  1438.4 secs   av.it.:  11.4
      thresh= 7.139E-07 alpha_mix =  0.700 |ddv_scf|^2 =  5.890E-13

      iter #   6 total cpu time :  1441.3 secs   av.it.:  11.6
      thresh= 7.675E-08 alpha_mix =  0.700 |ddv_scf|^2 =  1.179E-14

      iter #   7 total cpu time :  1443.9 secs   av.it.:  11.5
      thresh= 1.086E-08 alpha_mix =  0.700 |ddv_scf|^2 =  6.128E-16

     End of self-consistent calculation

     Convergence has been achieved 


     Representation #   2 modes #   3   4

     Self-consistent Calculation

      iter #   1 total cpu time :  1445.8 secs   av.it.:   6.4
      thresh= 1.000E-02 alpha_mix =  0.700 |ddv_scf|^2 =  5.016E-07

      iter #   2 total cpu time :  1449.3 secs   av.it.:  11.8
      thresh= 7.083E-05 alpha_mix =  0.700 |ddv_scf|^2 =  5.625E-07

      iter #   3 total cpu time :  1452.2 secs   av.it.:  11.1
      thresh= 7.500E-05 alpha_mix =  0.700 |ddv_scf|^2 =  4.861E-09

      iter #   4 total cpu time :  1455.0 secs   av.it.:  11.2
      thresh= 6.972E-06 alpha_mix =  0.700 |ddv_scf|^2 =  5.071E-11

      iter #   5 total cpu time :  1457.7 secs   av.it.:  11.4
      thresh= 7.121E-07 alpha_mix =  0.700 |ddv_scf|^2 =  1.156E-12

      iter #   6 total cpu time :  1472.7 secs   av.it.:  11.6
      thresh= 1.075E-07 alpha_mix =  0.700 |ddv_scf|^2 =  9.173E-15

      iter #   7 total cpu time :  1475.4 secs   av.it.:  11.5
      thresh= 9.578E-09 alpha_mix =  0.700 |ddv_scf|^2 =  5.763E-16

     End of self-consistent calculation

     Convergence has been achieved 


     Representation #   3 modes #   5   6

     Self-consistent Calculation

      iter #   1 total cpu time :  1477.4 secs   av.it.:   6.5
      thresh= 1.000E-02 alpha_mix =  0.700 |ddv_scf|^2 =  6.644E-07

      iter #   2 total cpu time :  1480.5 secs   av.it.:  11.6
      thresh= 8.151E-05 alpha_mix =  0.700 |ddv_scf|^2 =  7.292E-07

      iter #   3 total cpu time :  1484.0 secs   av.it.:  11.0
      thresh= 8.539E-05 alpha_mix =  0.700 |ddv_scf|^2 =  5.884E-09

      iter #   4 total cpu time :  1486.7 secs   av.it.:  11.1
      thresh= 7.671E-06 alpha_mix =  0.700 |ddv_scf|^2 =  3.996E-11

      iter #   5 total cpu time :  1490.0 secs   av.it.:  11.4
      thresh= 6.321E-07 alpha_mix =  0.700 |ddv_scf|^2 =  3.790E-13

      iter #   6 total cpu time :  1493.5 secs   av.it.:  11.5
      thresh= 6.157E-08 alpha_mix =  0.700 |ddv_scf|^2 =  6.659E-15

      iter #   7 total cpu time :  1496.4 secs   av.it.:  11.4
      thresh= 8.160E-09 alpha_mix =  0.700 |ddv_scf|^2 =  4.000E-16

     End of self-consistent calculation

     Convergence has been achieved 
 
     Number of q in the star =   12
     List of q in the star:
          1  -0.333333333  -1.000000000   0.000000000
          2   0.000000000  -1.000000000  -0.333333333
          3   0.000000000  -1.000000000   0.333333333
          4   0.333333333  -1.000000000   0.000000000
          5  -1.000000000   0.000000000  -0.333333333
          6   1.000000000   0.000000000   0.333333333
          7   0.000000000   0.333333333   1.000000000
          8   0.000000000  -0.333333333  -1.000000000
          9  -1.000000000  -0.333333333   0.000000000
         10   1.000000000   0.333333333   0.000000000
         11  -0.333333333   0.000000000   1.000000000
         12   0.333333333   0.000000000   1.000000000

     Diagonalizing the dynamical matrix

     q = (   -0.333333333  -1.000000000   0.000000000 ) 

 **************************************************************************
     freq (    1) =       5.493975 [THz] =     183.259291 [cm-1]
     freq (    2) =       5.493975 [THz] =     183.259291 [cm-1]
     freq (    3) =      10.966316 [THz] =     365.796921 [cm-1]
     freq (    4) =      10.966316 [THz] =     365.796921 [cm-1]
     freq (    5) =      14.002404 [THz] =     467.069935 [cm-1]
     freq (    6) =      14.002404 [THz] =     467.069935 [cm-1]
 **************************************************************************
 
     init_run     :      0.26s CPU      0.35s WALL (      15 calls)
     electrons    :    150.29s CPU    153.44s WALL (      15 calls)

     Called by init_run:
     wfcinit      :      0.00s CPU      0.04s WALL (      15 calls)
     potinit      :      0.02s CPU      0.04s WALL (      15 calls)
     hinit0       :      0.11s CPU      0.12s WALL (      15 calls)

     Called by electrons:
     c_bands      :    150.28s CPU    153.44s WALL (      15 calls)
     v_of_rho     :      0.01s CPU      0.01s WALL (      16 calls)

     Called by c_bands:
     init_us_2    :      6.45s CPU      6.84s WALL (  124472 calls)
     init_us_2:cp :      6.15s CPU      6.57s WALL (  124472 calls)
     cegterg      :    102.09s CPU    104.64s WALL (    4192 calls)

     Called by *egterg:
     cdiaghg      :     52.51s CPU     53.76s WALL (   59253 calls)
     h_psi        :    678.47s CPU    716.56s WALL ( 1251837 calls)
     g_psi        :      0.27s CPU      0.27s WALL (   55061 calls)

     Called by h_psi:
     h_psi:calbec :     47.65s CPU     50.29s WALL ( 1251837 calls)
     vloc_psi     :    593.32s CPU    626.67s WALL ( 1251837 calls)
     add_vuspsi   :     27.03s CPU     28.92s WALL ( 1251837 calls)

     General routines
     calbec       :     75.53s CPU     80.44s WALL ( 2512011 calls)
     fft          :      0.62s CPU      0.64s WALL (    3757 calls)
     ffts         :      2.74s CPU      2.82s WALL (   13200 calls)
     fftw         :    654.68s CPU    691.60s WALL (10564906 calls)
     davcio       :      4.69s CPU     32.65s WALL (  527034 calls)
 
     Parallel routines
 
     PHONON       :  21m22.41s CPU  24m56.95s WALL

     INITIALIZATION: 
     phq_setup    :      0.02s CPU      0.08s WALL (      16 calls)
     phq_init     :      2.71s CPU      3.89s WALL (      16 calls)
 
     phq_init     :      2.71s CPU      3.89s WALL (      16 calls)
     set_drhoc    :      0.50s CPU      0.51s WALL (      48 calls)
     init_vloc    :      0.03s CPU      0.03s WALL (      16 calls)
     init_us_1    :      0.03s CPU      0.03s WALL (      16 calls)
     init_us_2    :      6.45s CPU      6.84s WALL (  124472 calls)
 
     DYNAMICAL MATRIX:
     dynmat0      :      1.80s CPU      2.94s WALL (      16 calls)
     phqscf       :   1121.25s CPU   1284.53s WALL (      16 calls)
     dynmatrix    :      2.10s CPU      2.99s WALL (      16 calls)
 
     phqscf       :   1121.25s CPU   1284.53s WALL (      16 calls)
     solve_linter :   1117.82s CPU   1278.50s WALL (      76 calls)
     drhodv       :      3.36s CPU      3.58s WALL (      76 calls)
 
     dynmat0      :      1.80s CPU      2.94s WALL (      16 calls)
     dynmat_us    :      1.42s CPU      1.45s WALL (      16 calls)
     d2ionq       :      0.01s CPU      0.01s WALL (      16 calls)
     dynmatcc     :      0.36s CPU      0.36s WALL (      16 calls)
 
     dynmat_us    :      1.42s CPU      1.45s WALL (      16 calls)
 
     phqscf       :   1121.25s CPU   1284.53s WALL (      16 calls)
     solve_linter :   1117.82s CPU   1278.50s WALL (      76 calls)
 
     solve_linter :   1117.82s CPU   1278.50s WALL (      76 calls)
     dvqpsi_us    :     11.70s CPU     12.27s WALL (   12744 calls)
     sth_kernel   :   1022.22s CPU   1098.73s WALL (     582 calls)
     apply_dpot_b :     49.89s CPU     52.96s WALL (   87742 calls)
     ortho        :      3.05s CPU      3.25s WALL (  100486 calls)
     cgsolve      :    726.22s CPU    768.39s WALL (  100486 calls)
     incdrhoscf   :     64.53s CPU     67.95s WALL (  100444 calls)
     dv_of_drho   :      0.25s CPU      0.25s WALL (     709 calls)
     mix_pot      :      3.35s CPU     53.40s WALL (     582 calls)
     psymdvscf    :      8.73s CPU      8.76s WALL (     577 calls)
 
     dvqpsi_us    :     11.70s CPU     12.27s WALL (   12744 calls)
     dvqpsi_us_on :      1.78s CPU      1.88s WALL (   12744 calls)
 
     cgsolve      :    726.22s CPU    768.39s WALL (  100486 calls)
     ch_psi       :    707.73s CPU    748.48s WALL ( 1188392 calls)
 
     ch_psi       :    707.73s CPU    748.48s WALL ( 1188392 calls)
     h_psi        :    678.47s CPU    716.56s WALL ( 1251837 calls)
     last         :     55.15s CPU     58.36s WALL ( 1188392 calls)
 
     h_psi        :    678.47s CPU    716.56s WALL ( 1251837 calls)
     add_vuspsi   :     27.03s CPU     28.92s WALL ( 1251837 calls)
 
     incdrhoscf   :     64.53s CPU     67.95s WALL (  100444 calls)
 
 
      General routines
     calbec       :     75.53s CPU     80.44s WALL ( 2512011 calls)
     fft          :      0.62s CPU      0.64s WALL (    3757 calls)
     ffts         :      2.74s CPU      2.82s WALL (   13200 calls)
     fftw         :    654.68s CPU    691.60s WALL (10564906 calls)
     davcio       :      4.69s CPU     32.65s WALL (  527034 calls)
     write_rec    :      0.69s CPU     39.60s WALL (     658 calls)
 
 
     PHONON       :  21m22.41s CPU  24m56.95s WALL

 
   This run was terminated on:  21:19:52   3May2022            

=------------------------------------------------------------------------------=
   JOB DONE.
=------------------------------------------------------------------------------=
real 1500.72
user 26567.25
sys 1059.87
